LAMMPS data file via write_data, version 2 Aug 2023, timestep = 100007, units = lj

1800 atoms
2 atom types
900 bonds
1 bond types

-5.5 5.5 xlo xhi
-5.5 5.5 ylo yhi
-5.5 5.5 zlo zhi

Masses

1 17.6
2 0.4

Pair Coeffs # lj/cut/coul/long/gpu

1 1 1
2 0 0

Bond Coeffs # harmonic

1 500 0

Atoms # full

275 0 1 1.7354 -3.4741727248965466 -1.4605772249031252 -2.4599155091450364 0 0 -2
1261 0 2 -1.7354 -3.6918891118273502 -1.2812550714325972 -2.9352772979751838 0 0 -2
205 0 1 1.7354 -1.7909736426256122 -1.9976344623570335 -1.859511690470798 1 1 -1
1361 0 2 -1.7354 -1.753334009359906 -1.9841958263223578 -1.8621126029824853 1 1 -1
426 0 1 1.7354 -2.711765997614317 -2.798918701204253 -3.8081135364187753 1 0 2
1328 0 2 -1.7354 -1.5460780672662602 -4.1229690455806915 -4.472373020647635 2 0 1
845 0 1 1.7354 -1.6763956521271008 -3.7239723351155605 -4.898778240228463 2 0 1
911 0 2 -1.7354 -3.7372030917021797 -2.6514799039238275 -3.5643111500701115 -2 0 1
881 0 1 1.7354 -3.7989340411621715 -2.074941477546019 -3.3592683828910723 -2 0 1
657 0 1 1.7354 -3.7968110456446484 -2.8158858076590696 -4.148639995924736 2 -1 1
1384 0 2 -1.7354 -3.7604188924559687 -2.9045446692462265 -3.922132863741968 2 -1 1
1685 0 2 -1.7354 -1.0365123438920738 -1.4700161301463321 -5.257077470901073 0 0 1
677 0 1 1.7354 -0.9466954251231324 -2.0282270464582752 -5.142215920513288 0 0 1
33 0 1 1.7354 -0.9490305421042582 -2.691663449931785 -4.025518251234508 0 3 -2
1034 0 2 -1.7354 -5.230445998605364 -3.877173366160562 -1.5514912107486847 1 -1 -1
133 0 1 1.7354 -1.887863583480179 -2.959027350623095 -2.3453070316597335 -1 -1 0
266 0 1 1.7354 -5.384382800486718 -3.96901523739463 -1.5419778167974012 1 -1 -1
1057 0 2 -1.7354 -1.9099120856680123 -2.9153446162147962 -2.7761582332725294 -1 -1 0
1132 0 2 -1.7354 -4.048027328927835 -4.111260651217065 -0.46703213951192424 1 2 0
327 0 1 1.7354 -5.007681158198821 -4.353656927594717 -5.066050945697358 2 0 2
649 0 1 1.7354 -3.617731476758176 -0.7565381845797615 -1.8524681970082482 1 0 0
722 0 1 1.7354 -5.48967735410049 -1.546051522479795 -1.573956458844071 0 0 1
1728 0 2 -1.7354 -5.452358689363155 -1.5875150369428332 -1.6466319084106773 0 0 1
983 0 2 -1.7354 -4.833984803463249 -3.8471470510287094 -5.084606687650264 2 0 2
1139 0 2 -1.7354 -3.841666601303535 -0.6080070164173607 -4.964416729197956 1 2 0
663 0 1 1.7354 -3.689991845657742 -0.7213695536209512 -5.271319667286694 1 2 0
1383 0 2 -1.7354 -3.4439764864149836 -0.8732164235500385 -1.7777106061118841 1 0 0
978 0 2 -1.7354 -3.006864818239032 -4.41517136809576 -0.6575473032741463 -2 0 -2
775 0 1 1.7354 -3.0122262239415196 -4.631408176729293 -0.8464212799310548 -2 0 -2
31 0 1 1.7354 -1.625449185912544 -5.219388479464771 -2.6143244409958317 -1 1 0
298 0 1 1.7354 -1.8052172049224653 -2.8451530189245506 -4.785438835113282 1 1 -1
1517 0 2 -1.7354 -1.5676439087549456 -2.7513733807162395 -4.9306032782765525 1 1 -1
1667 0 2 -1.7354 -3.5481338071521935 -1.8619860409684499 -1.565425755658063 2 0 2
451 0 1 1.7354 -3.428440397798874 -2.317469924253396 -1.9841887838906247 2 0 2
1649 0 2 -1.7354 -1.1867670092452125 -2.6882143428351455 -3.951394638673142 0 3 -2
927 0 2 -1.7354 -3.8431833884672897 -2.873239922930891 -2.329679227839386 1 0 2
15 0 1 1.7354 -3.8177885757058285 -3.2100001263284774 -2.5094586344444294 1 0 2
1040 0 2 -1.7354 -4.175033652987961 -5.386030201097446 -2.5721044209776998 -2 1 -1
16 0 1 1.7354 -3.2770623831248256 -3.446157180782526 -3.832802178750748 0 -1 0
124 0 1 1.7354 -0.8422896666019059 -4.432878439935757 -4.255539835969053 0 0 2
1433 0 2 -1.7354 -4.249492666925382 -2.1724769563791266 -2.5472674490332943 -2 1 0
222 0 1 1.7354 -4.447501107327933 -2.00460631508974 -2.643313976435162 -2 1 0
78 0 1 1.7354 -3.6516160921192578 -3.8911887058802823 -0.5669685184010286 1 2 0
1573 0 2 -1.7354 -0.7383951684980566 -4.349894384010827 -4.357341591899204 0 0 2
382 0 1 1.7354 -2.1955949427780412 -0.6239248878955749 -0.655896533433867 0 -1 -2
1660 0 2 -1.7354 -3.6576074108002947 -3.6009944113530024 -3.706808202627594 0 -1 0
1109 0 2 -1.7354 -2.636106233777781 -2.8045823667886007 -3.8079652878143024 1 0 2
383 0 1 1.7354 -5.4738712051094405 -4.676140751798888 -3.0854388549765743 0 3 1
1632 0 2 -1.7354 -2.2922082284633105 -1.2259416337218894 -1.6617333706920179 2 1 -2
457 0 1 1.7354 -2.454037423143265 -1.40964132150237 -1.4639227409611555 2 1 -2
725 0 1 1.7354 -4.786556436625617 -4.058786239821166 -2.2856255822816793 -1 -1 -2
1087 0 2 -1.7354 -4.576624175530555 -4.136747269754767 -2.452888352031404 -1 -1 -2
112 0 1 1.7354 -2.918927008600179 -2.2819000746663853 -4.585894327110386 2 2 0
1774 0 2 -1.7354 -3.116499167305877 -1.8457425512722336 -4.745295711528542 2 2 0
332 0 1 1.7354 -0.6724283360200778 -3.12620220079187 -1.369086318426604 1 1 -1
1002 0 2 -1.7354 -3.177065469799024 -0.48334573453306157 -4.502585855871486 1 -1 -1
106 0 1 1.7354 -3.329960590170905 -0.7769000151230858 -4.321283256175686 1 -1 -1
1388 0 2 -1.7354 -0.7686121473398588 -3.4998207782747417 -2.155236996460957 1 1 0
636 0 1 1.7354 -0.8021177110153058 -3.809127685934023 -2.014510385093273 1 1 0
119 0 1 1.7354 -4.533723334525104 -2.608676883937725 -4.574902803310297 1 2 2
1791 0 2 -1.7354 5.433137287554495 -3.3096820284603075 -1.0981303590907645 0 0 0
549 0 1 1.7354 -1.7313417120866477 -5.0448905521693455 -3.9768395706646578 -1 1 -1
1273 0 2 -1.7354 -1.8563909494667943 -5.301388113236201 -3.849351988572749 -1 1 -1
321 0 1 1.7354 -1.1787710142004184 -4.060566902540316 -3.3263610570416997 0 0 0
1060 0 2 -1.7354 -1.4646045289022338 -4.15608036691012 -3.2980826829426464 0 0 0
1117 0 2 -1.7354 -4.885227895195413 -1.3981817378062744 -3.359571791313051 -2 0 1
841 0 1 1.7354 -4.717164524545896 -1.2063746172410386 -3.3760305805842177 -2 0 1
557 0 1 1.7354 -1.2905496737552207 -0.9677630767629689 -4.011335725497539 0 1 0
601 0 1 1.7354 -0.7364849923597139 -2.1897001680526915 -1.7754031329563529 -2 0 0
1081 0 2 -1.7354 -1.0661046010050643 -2.0487136133838213 -2.1287616790595476 -2 0 0
1218 0 2 -1.7354 -5.380387349131517 -2.717863862084531 -3.339428504600112 1 1 1
263 0 1 1.7354 -5.253702985924664 -2.3234473834032836 -3.21295311313346 1 1 1
376 0 1 1.7354 -4.398164154826032 -1.180052157940607 -4.212042786909887 0 0 -1
956 0 2 -1.7354 -3.8515215568897068 -0.966307070275969 -3.944046519044862 0 0 -1
1180 0 2 -1.7354 -2.6838259311877932 -4.463386376173985 -2.244015943030419 0 -2 2
875 0 1 1.7354 -2.04880784681179 -3.5686519474412046 -4.084919934362 0 1 2
1634 0 2 -1.7354 -4.147018044790466 -2.9308489413145615 -3.417088317974265 0 1 0
390 0 1 1.7354 -2.6933105265302983 -4.718064035667796 -2.4995398833767832 0 -2 2
1473 0 2 -1.7354 -4.32570267025889 -2.5451458548708907 -1.2189589088949762 -1 0 2
584 0 1 1.7354 -4.4382706442646 -2.5237877315322024 -1.4029566243187412 -1 0 2
1469 0 2 -1.7354 -1.9593888142943963 -3.78055206188925 -3.580293553671247 0 1 2
1694 0 2 -1.7354 -0.957905398530138 -1.2127088447872822 -3.460485109674851 -1 -1 -2
701 0 1 1.7354 -1.2156528330440295 -1.3231966819279273 -3.07123747461555 -1 -1 -2
1585 0 2 -1.7354 -2.736886285302205 -1.636739434217427 -3.1413712266431353 -1 -2 1
296 0 1 1.7354 -2.9757283575785793 -1.549270376686238 -3.162045806293917 -1 -2 1
460 0 1 1.7354 -1.1343151802887226 -1.7283686739492645 -2.2757055933182584 -1 1 -1
1240 0 2 -1.7354 -1.3001964002790198 -1.7483223517293485 -2.0687895675983987 -1 1 -1
1424 0 2 -1.7354 -1.239658833514353 -1.044931302402762 -3.863320515685095 0 1 0
1662 0 2 -1.7354 -4.632309382118706 -0.591129361929298 -0.7241862825340284 1 0 -1
861 0 1 1.7354 -4.444501977885955 -0.7393122683438912 -0.683595376738279 1 0 -1
424 0 1 1.7354 -3.475070183006973 -5.121067972915469 -2.875917491992015 1 -2 -1
915 0 2 -1.7354 -3.5376638594607424 -5.124901709991676 -2.905390618039294 1 -2 -1
336 0 1 1.7354 -1.7593916623120391 -5.454146089741313 -1.6271361030388225 2 0 0
949 0 2 -1.7354 -0.8822213119614223 -1.5976957040384299 -3.693596340944544 -2 0 1
1479 0 2 -1.7354 -4.345207547292787 -3.388244339694631 -1.9276827795191604 0 0 2
809 0 1 1.7354 -4.137882322038044 -3.4859785827893295 -1.4927538750826341 0 0 2
794 0 1 1.7354 -1.015632009539855 -3.2075440286519252 -5.183227921769015 1 0 2
1588 0 2 -1.7354 -1.0556377005541813 -2.7881738265877076 -4.771326842698686 1 0 2
1105 0 2 -1.7354 -0.7488367608748117 -3.116658951292195 -1.4637420917039472 1 1 -1
1302 0 2 -1.7354 -1.326966011195015 -5.428363905302347 -1.7780573175306225 2 0 0
271 0 1 1.7354 -3.5717612463687076 -4.990443184992536 -5.019739583252788 -2 2 0
1026 0 2 -1.7354 -3.501926362340769 -4.640898669816455 -5.04153871688804 -2 2 0
1553 0 2 -1.7354 -1.8635661568184727 -1.890525060817119 -4.436020456178816 1 1 1
474 0 1 1.7354 -1.8778904573595625 -2.024247552759453 -4.645837952091089 1 1 1
955 0 2 -1.7354 -0.46753432454190313 -4.186279841205131 -0.9305397902690392 -1 0 0
356 0 1 1.7354 -0.5250406339102996 -4.331970469982818 -1.043215879734713 -1 0 0
161 0 1 1.7354 -4.3225345701088616 -3.3827304470346693 -3.3618441623203728 0 1 0
304 0 1 1.7354 -4.982098447743349 -5.46685683701934 -4.557880105668597 1 0 1
90 0 1 1.7354 -0.7752942717190411 -0.892595470018142 -4.71030671129368 -1 0 2
1407 0 2 -1.7354 -1.931161381848065 -0.9309468962748042 -5.4750560517332 3 2 3
591 0 1 1.7354 -2.4132171919591863 -2.144699887724836 -2.9931763244652805 0 -1 1
1387 0 2 -1.7354 -2.318900755490228 -2.4774351200047064 -2.440660827912592 0 -1 1
540 0 1 1.7354 -0.4754752883969102 -1.7410235510240033 -3.456125923603093 -2 0 1
877 0 1 1.7354 -5.031553098499355 -2.400880469533017 -2.0374500415854686 1 -1 2
1624 0 2 -1.7354 -4.596727417498422 -2.4503839321612486 -2.0330829668749097 1 -1 2
1677 0 2 -1.7354 -4.878440924662324 -1.7468236804987785 -4.350773412239084 1 1 2
632 0 1 1.7354 -4.9398019904047015 -1.7646524757197255 -4.297354070224553 1 1 2
1401 0 2 -1.7354 -5.376390376851656 -0.5053624589024818 -3.596708409298744 -1 0 0
1711 0 2 -1.7354 -4.7228947583314 -3.0316321694646096 -4.633930203516077 1 2 2
249 0 1 1.7354 -4.790215355010269 -4.584216893368333 -1.176480902133548 2 -1 2
1072 0 2 -1.7354 -4.588407825478539 -4.476026511998302 -1.239567030289476 2 -1 2
1101 0 2 -1.7354 -5.445585078534357 -3.127869473846274 -4.099693557378987 0 1 2
904 0 2 -1.7354 -4.415298405021136 -4.7491661845226965 -3.3058448908608997 2 -1 0
251 0 1 1.7354 -4.27163519643257 -4.853955090692331 -3.4587276341403457 2 -1 0
1210 0 2 -1.7354 -2.4340982569712093 -3.266995526179052 -2.502166786902446 0 0 -1
199 0 1 1.7354 -2.3748655869925015 -3.650108809746365 -2.4073007594196105 0 0 -1
815 0 1 1.7354 -2.369141778240094 -4.746516994783721 -5.051688563843024 0 1 -2
973 0 2 -1.7354 -2.345969124738512 -5.080148510124764 -5.044788718251708 0 1 -2
574 0 1 1.7354 -2.162405398559134 -1.2220392026232982 -2.319843546002611 0 -2 1
1418 0 2 -1.7354 -2.303730915959636 -1.3138575836382103 -2.194339570936401 0 -2 1
1596 0 2 -1.7354 -3.2561511925640714 -0.5944290306925091 -3.1061261978355073 1 -1 0
401 0 1 1.7354 -3.498577770644575 -0.43312772445895636 -3.186350383235334 1 -1 0
840 0 1 1.7354 -0.5329847560301699 -4.836360224548608 -2.9594812512338264 0 1 0
1161 0 2 -1.7354 -1.272944391538704 -5.353603613977492 -2.445292389553563 -1 1 0
974 0 2 -1.7354 -3.2242094171308837 -5.217129809428358 -4.401633799047912 1 0 -1
734 0 1 1.7354 -3.3344190286989495 -5.15995162201658 -4.209490171174336 1 0 -1
1714 0 2 -1.7354 -2.3357978988059136 -4.93649043535399 -3.120890670283701 0 -2 1
1442 0 2 -1.7354 -4.7603174413741005 -0.8048606805681189 -1.9448748984159958 1 0 2
365 0 1 1.7354 -4.989815574303256 -0.6242664543791943 -2.076823114112869 1 0 2
1420 0 2 -1.7354 -3.4499784110741527 -3.4184402948161705 -1.138274928675408 1 2 -1
890 0 1 1.7354 -3.1031355452830955 -3.456827098249857 -1.3787948022942087 1 2 -1
1525 0 2 -1.7354 -3.2352861626854006 -4.5108732600265515 -1.9139353267186412 -1 -2 -1
281 0 1 1.7354 -3.2580928723323836 -4.175489643808594 -1.8730499367802618 -1 -2 -1
1743 0 2 -1.7354 -4.944290237248424 -3.7422820074532503 -0.5979055435556551 -1 1 -1
470 0 1 1.7354 -4.692813443455553 -3.973873465720389 -0.467258115675014 -1 1 -1
300 0 1 1.7354 -5.350044245332227 -3.5258744421538486 -5.062503305528756 1 0 1
935 0 2 -1.7354 -3.4867244015490333 -2.833429891795717 -5.136386627674834 1 -2 0
1038 0 2 -1.7354 -0.551467083803009 -5.2767256375723335 -0.6913605376196525 -2 -1 -1
1761 0 2 -1.7354 -4.977903607704404 -5.006916710391635 -2.170798237346286 1 1 0
51 0 1 1.7354 -5.002188790502839 -4.923547937288577 -2.048798547222332 1 1 0
1507 0 2 -1.7354 -1.7580152938903786 -4.373346594521338 -1.6856896632078433 2 0 1
265 0 1 1.7354 -1.5180709047736718 -4.421175498062139 -1.7800153473850777 2 0 1
131 0 1 1.7354 -3.6958538462680095 -1.7285107165583609 -1.0313148448451481 2 -1 0
1071 0 2 -1.7354 -3.7397961147283314 -2.1310269065534126 -0.6466843539616859 2 -1 0
810 0 1 1.7354 -3.319885344809631 -2.441650070171028 -5.2751662721640775 0 2 1
1215 0 2 -1.7354 -3.30191745858571 -2.422503989596369 -5.188881106193409 0 2 1
1540 0 2 -1.7354 -5.070433283782303 -1.9993333001329663 -0.5638551535856705 3 1 0
367 0 1 1.7354 -5.318157951011535 -1.5589207510823146 -0.7329323664517681 3 1 0
1373 0 2 -1.7354 -4.423999677523656 -1.8426895201483333 -1.6017913896589056 -1 -1 1
174 0 1 1.7354 -4.467337941493004 -1.6852228888675718 -1.6256324654348189 -1 -1 1
1771 0 2 -1.7354 -2.5382901295747256 5.47273949832401 -5.438588538188604 0 0 1
99 0 1 1.7354 -2.235646428901047 -0.35471068370492154 -2.409572862650784 1 1 0
1402 0 2 -1.7354 -2.1449142342277066 -0.4264307960851636 -2.5616845823464836 1 1 0
866 0 1 1.7354 -1.4669767436346817 -5.397599142590701 -4.802625901232153 -1 -1 1
527 0 1 1.7354 -0.5795843415209865 -5.468194813081144 -0.8533085328524642 -2 -1 -1
1260 0 2 -1.7354 -2.827910455688234 -3.4981227341773784 -4.798054689227573 0 0 0
220 0 1 1.7354 -2.74795916785261 -3.413794507231266 -4.881531108054032 0 0 0
1212 0 2 -1.7354 -1.5557816459566285 -5.217129799280977 -5.329600419722703 -1 0 1
885 0 1 1.7354 -3.82359992598837 -2.894953595023199 -4.991506792782249 1 -2 0
395 0 1 1.7354 -3.360605359245532 -1.5862232021057192 -4.097818953006372 -1 1 1
1236 0 2 -1.7354 -3.3657627644144 -1.8076551900069855 -4.223646259056078 -1 1 1
964 0 2 -1.7354 -5.134868309450281 -2.716745179144339 -5.430695265508993 1 -2 0
102 0 1 1.7354 -2.4975465824534453 -1.6493578375546225 -4.177022473742332 -3 1 0
1144 0 2 -1.7354 -3.0191977406098225 -1.4331048762116054 -4.335441604141216 -3 1 0
231 0 1 1.7354 -4.338520479885281 -5.427739643518826 -5.088662707776127 0 1 -1
1606 0 2 -1.7354 -4.225742147997462 5.4512744682493235 -5.07151916639588 0 0 -1
594 0 1 1.7354 -2.3218770635989556 -4.624406699364167 -3.623041427418868 0 -2 1
1650 0 2 -1.7354 -0.33394961477236634 -4.7635949560002535 -4.3818552688334425 1 3 1
516 0 1 1.7354 -0.02658381387554258 -2.286995200439847 -4.217365491579722 0 1 0
1199 0 2 -1.7354 0.07056922190763329 -2.284675007486552 -4.210482805281856 0 1 0
691 0 1 1.7354 4.067316532838779 -1.8940061816513025 -4.014663670207847 -2 -1 0
1259 0 2 -1.7354 4.4165010417214265 -4.932776271018003 -3.543016564146809 -2 3 0
1314 0 2 -1.7354 3.871017124315533 -2.0293377212886026 -3.9871865646316156 -2 -1 0
1630 0 2 -1.7354 0.16608320735034407 -0.698132414614201 -3.945575465028953 0 0 1
1482 0 2 -1.7354 0.10715670281082137 -1.4852079611599203 -4.02377746629824 -1 1 -1
286 0 1 1.7354 0.0675985136082891 -4.898001366389334 -0.7736122843162687 -2 -1 1
502 0 1 1.7354 1.4732846100641692 -3.0216791258578777 -3.892131436177352 1 -1 -1
712 0 1 1.7354 4.267368448406868 -0.7366498343114847 -4.934625159291069 1 0 -1
1217 0 2 -1.7354 4.209715330385987 -0.6066349558967202 -5.039092073213135 1 0 -1
192 0 1 1.7354 4.368198483881662 -2.545849418070593 -2.618778422170055 0 0 0
959 0 2 -1.7354 4.016894293622231 -2.7783926958649756 -2.4739537616358356 0 0 0
1271 0 2 -1.7354 4.720264654227586 -2.3141229038790025 -2.085001730145163 0 2 1
1475 0 2 -1.7354 2.4815985479413136 -3.717543472646268 -4.77008399939161 0 1 -1
870 0 1 1.7354 1.7227140207057516 -5.254132163467333 -0.9449484696746183 -2 2 0
285 0 1 1.7354 2.753889933292373 -4.017102738019036 -3.7616319030784813 1 0 0
388 0 1 1.7354 1.5830693591735026 -3.2500467305247946 -1.6404139249582739 0 0 0
998 0 2 -1.7354 1.4585502444627 -2.993671993814533 -1.9760403655654992 0 0 0
204 0 1 1.7354 2.714658259655435 -3.701918446134558 -4.878092099897302 0 1 -1
851 0 1 1.7354 -0.15856996745887625 -3.826509202024853 -4.47210742050403 0 1 0
1157 0 2 -1.7354 -0.22601619005217685 -3.6336181293703174 -4.356819111043781 0 1 0
745 0 1 1.7354 0.8725523753917194 -1.9732239325921315 -1.9488050579326774 -1 0 -3
921 0 2 -1.7354 1.1550253548035356 -1.7200908800117929 -1.9075612941015927 -1 0 -3
132 0 1 1.7354 0.5554174551959004 -1.2753040106624909 -3.750832860356032 -1 1 -1
668 0 1 1.7354 4.786888986696089 -2.23877618431883 -5.020028421972929 0 -1 -1
1702 0 2 -1.7354 4.653189484357286 -2.541572274136323 -5.192977971661792 0 -1 -1
1211 0 2 -1.7354 2.5767387553964927 -3.6138453616902475 -0.9176008050994282 -3 -1 2
35 0 1 1.7354 1.9118116981502484 -2.7230275704360425 -5.167278463742886 1 1 0
1035 0 2 -1.7354 1.8679219217952014 -2.8295729213251435 -5.33092876323538 1 1 0
1542 0 2 -1.7354 0.3798672024408074 -5.421175895512504 -2.0017402488965623 -1 2 0
58 0 1 1.7354 3.0977096421937005 -4.3368889085249025 -4.954476647321561 1 1 -1
1370 0 2 -1.7354 2.721457232802184 -4.480417729841615 -4.615064803568649 1 1 -1
1788 0 2 -1.7354 1.2563172260772988 -3.1650855957038067 -3.8215929684996737 2 -1 2
705 0 1 1.7354 3.5590593542976823 -1.3522200326758902 -4.694797254244513 1 -1 -2
348 0 1 1.7354 -0.15165408898404495 -1.775759788862763 -2.202045041953619 -1 1 1
1628 0 2 -1.7354 -0.09224468362074226 -1.8450807867279841 -1.971454277578627 -1 1 1
867 0 1 1.7354 2.60027589019038 -2.1465008189741863 -0.425877683624817 -2 1 -1
683 0 1 1.7354 1.1068834037806565 -3.6658464850072696 -0.9099575743253704 -3 -1 -2
947 0 2 -1.7354 1.2505209466439744 -3.5338234199165774 -1.2821055275968258 -3 -1 -2
1063 0 2 -1.7354 4.6252574788625 -1.8597228217067772 -3.30009268329357 1 1 0
408 0 1 1.7354 4.786367089039415 -1.6289768273624703 -3.5431089963352167 1 1 0
87 0 1 1.7354 3.9912927271122647 -4.808866162474234 -2.1582549025195954 -1 -1 2
556 0 1 1.7354 4.693571838864818 -3.375521434581247 -5.287138884250298 -1 0 1
125 0 1 1.7354 4.10040057571559 -4.1624976482211204 -3.5276834365828242 -1 0 2
1792 0 2 -1.7354 4.018500275818428 -4.256171062122904 -3.6012607978792173 -1 0 2
273 0 1 1.7354 0.7163497556123037 -2.0306181148582847 -3.8434177353186647 1 0 -1
1762 0 2 -1.7354 0.7826189925768204 -2.3342517898914625 -3.8311522801284954 1 0 -1
1147 0 2 -1.7354 0.6747501595349782 -4.681473247633659 -0.3454690461213038 -2 -1 1
1298 0 2 -1.7354 2.6787499981916305 -1.9427141355448714 -2.5137471644109928 -1 0 1
165 0 1 1.7354 2.7155868975000215 -1.77047504179137 -2.5478365228161337 -1 0 1
1675 0 2 -1.7354 1.3145035838244916 -3.283153398817235 -4.032466272932478 1 -1 -1
459 0 1 1.7354 3.5152139687536756 -5.335005961196403 -5.440373792993866 0 -1 0
1343 0 2 -1.7354 0.9540439664466421 -3.7529511433077776 -3.4882375081571815 0 0 1
813 0 1 1.7354 3.2042114706198475 -4.696438439913395 -1.3518196613904976 -2 -1 0
1344 0 2 -1.7354 3.1475057676189526 -4.806482657693223 -1.4292659804068042 -2 -1 0
89 0 1 1.7354 0.4638197508658725 -4.292704258511391 -1.517901355721579 0 -1 1
951 0 2 -1.7354 2.412798234313747 -1.0437455397591868 -3.2510624232406844 -1 -2 1
807 0 1 1.7354 2.3302878382929673 -1.083958958721993 -3.3030428904467497 -1 -2 1
1168 0 2 -1.7354 4.215424479528912 -4.8348046157705395 -1.8274600775778744 -1 -1 2
1330 0 2 -1.7354 4.553066794832384 -3.387547747244875 -5.305080948986374 -1 0 1
1421 0 2 -1.7354 1.6321145155744514 -0.49027317809181864 -2.0723444988700104 1 0 2
463 0 1 1.7354 0.058660332247642534 -0.6730074157636875 -2.9243135020183706 0 -1 0
750 0 1 1.7354 3.290071995159085 -3.5333695857366805 -2.2573168782031274 0 -2 2
780 0 1 1.7354 0.6932571729633985 -3.9361555656897558 -3.385268799372424 0 0 1
774 0 1 1.7354 2.87913339390864 -3.0583527696909707 -4.337399885682322 0 -1 1
953 0 2 -1.7354 3.33791705979987 -4.33141649070475 -2.31702626475548 -2 -2 0
646 0 1 1.7354 3.3606126539739307 -4.299990735996201 -2.2925911378427752 -2 -2 0
1764 0 2 -1.7354 3.368973033860238 -3.1700787823075762 -2.206656560962262 0 -2 2
299 0 1 1.7354 1.666316127490961 -0.6147861484099968 -2.1058750055128583 1 0 2
1221 0 2 -1.7354 0.08599782111935671 -0.5685852688240096 -2.7371029533397793 0 -1 0
514 0 1 1.7354 -0.14018303268228244 -4.482020390492815 -3.5289028135468943 -1 2 0
1669 0 2 -1.7354 0.018112751019701764 -4.389113035425792 -3.474643850236109 -1 2 0
966 0 2 -1.7354 2.5941840882618354 -4.530919372155113 -2.1644924291843903 1 1 -1
46 0 1 1.7354 2.6274730570852465 -4.209271156237429 -2.1031396437870855 1 1 -1
1380 0 2 -1.7354 0.4951080997387836 -4.54593463376395 -1.4416568212701697 0 -1 1
311 0 1 1.7354 0.08628457952529163 -1.271521229656165 -1.564175638407425 0 1 -1
1555 0 2 -1.7354 0.31946551728064587 -1.028001826846032 -1.3384226842851337 0 1 -1
518 0 1 1.7354 2.0073310644016784 -2.522972307991462 -1.591940201709189 -1 1 -1
1253 0 2 -1.7354 3.539327296023601 -1.3232029598581239 -3.46850796533701 0 0 -2
1663 0 2 -1.7354 3.7307228338417033 -3.4221941274567067 -3.376708194863938 1 0 2
824 0 1 1.7354 3.635463264791787 -1.4983746344559852 -3.195472701897947 0 0 -2
1167 0 2 -1.7354 2.257617229363835 -2.243477025387087 -1.391519526372547 -1 1 -1
1135 0 2 -1.7354 2.1675653786671045 -2.051194980084116 -2.925187993131785 -2 -1 0
139 0 1 1.7354 2.779524809469016 -3.9456725657773086 -0.9528594069893386 -3 -1 2
1154 0 2 -1.7354 3.97116010970858 -2.9535240648002907 -3.5814678820341808 -3 2 0
1263 0 2 -1.7354 3.3762553991663475 -5.416104296387019 -5.203045302673286 0 -1 0
1646 0 2 -1.7354 1.812388906572385 -1.1481546571270456 -4.6601603377930125 -2 -2 -2
1130 0 2 -1.7354 4.138235549785565 -0.8464161114066099 -1.9683126183275013 1 0 0
1705 0 2 -1.7354 0.9125935952930896 -1.290368453119622 -1.706514837985939 -1 -2 0
207 0 1 1.7354 1.0616595440304455 -1.1589987684114804 -1.783237634310455 -1 -2 0
1394 0 2 -1.7354 1.3725673295499232 -3.291647194018362 -2.79567870651078 -1 -1 0
850 0 1 1.7354 3.177247277210239 -1.0700396791461422 -2.410621168236532 -1 -3 2
1294 0 2 -1.7354 3.2311699046335383 -1.0483458113406328 -2.4249723841873427 -1 -3 2
193 0 1 1.7354 3.9820112088489767 -1.8938135091587944 -5.251436361004812 1 2 1
1595 0 2 -1.7354 3.7356063514563482 -2.0048711630474285 -5.291097766820636 1 2 1
345 0 1 1.7354 1.6371636063688886 -1.165235930179057 -4.682587869998037 -2 -2 -2
755 0 1 1.7354 0.14043370769946575 -3.2686076417593757 -0.9367991599764213 0 0 -1
600 0 1 1.7354 2.165766182813838 -2.003170928633125 -3.0168805712839104 -2 -1 0
262 0 1 1.7354 1.8865000240893368 -3.0608906919458088 -2.632139426501085 -1 -1 0
243 0 1 1.7354 1.2396798141466856 -2.8110965926458062 -1.1216788088613088 -2 -2 1
1678 0 2 -1.7354 0.12657290726389034 -3.6935662245439698 -0.9476536471052309 0 0 -1
1019 0 2 -1.7354 2.928813538618374 -4.282335086929812 -3.3769414012362367 1 0 0
1250 0 2 -1.7354 2.5642204936417583 -5.260158648887154 -3.704286749713324 0 1 1
1008 0 2 -1.7354 4.087822246566665 -3.730767127952831 -5.450511242117409 -1 1 -2
694 0 1 1.7354 4.54593811142359 -3.6662853766006442 -1.5413835885590437 1 0 -1
360 0 1 1.7354 1.6812101238612362 -2.3066437792810564 -0.6278715595085945 0 -1 0
1697 0 2 -1.7354 1.498954082720126 -2.271913993186065 -0.8752941085957325 0 -1 0
1296 0 2 -1.7354 2.7137266873962647 -3.3007879645382676 -5.35013588703212 -2 0 1
963 0 2 -1.7354 3.564681119934271 -2.399487702113798 -1.648683288183561 0 0 1
491 0 1 1.7354 3.659325604694109 -2.205676305317244 -1.7980079026304987 0 0 1
510 0 1 1.7354 0.704978661344048 -0.3461945183114184 -0.8455082557472988 1 -1 2
831 0 1 1.7354 3.5844021941159827 -4.289525774868866 -0.4534454250094794 -1 1 -1
230 0 1 1.7354 3.013046299916093 -2.0084854854543632 -4.612901302399553 1 -1 0
1239 0 2 -1.7354 3.2064801772419873 -2.1895579971137242 -4.575166075476654 1 -1 0
1303 0 2 -1.7354 3.727727050352991 -1.5581768947375882 -4.788252984275382 1 -1 -2
1158 0 2 -1.7354 1.5877704045303456 -0.9226189990650566 -2.770842238741074 -3 2 0
288 0 1 1.7354 1.3393166798242233 -1.2442558460121167 -2.8552182047503996 -3 2 0
1593 0 2 -1.7354 3.29837740325196 -3.2229127383501766 -4.336499166192209 0 -1 1
857 0 1 1.7354 4.346588086048507 -5.031704132893473 -3.6163958998365238 -2 3 0
708 0 1 1.7354 4.699427064418986 -4.584482518736799 -2.4945217204696664 -1 2 1
1551 0 2 -1.7354 4.499716276755916 -4.648817288080273 -2.4618047681306403 -1 2 1
292 0 1 1.7354 4.365733396713673 -0.6709132958703692 -1.7382760918798839 1 0 0
1304 0 2 -1.7354 4.538547990509492 -3.5471154928121806 -3.639655900121516 0 0 1
478 0 1 1.7354 4.28066686775401 -2.9847547725897647 -3.6668630739709456 -3 2 0
942 0 2 -1.7354 4.693676263667943 -1.8835563148626582 -0.49975404570297416 -1 -1 -1
59 0 1 1.7354 4.766069841159708 -2.1522723011442633 -0.6216632467071146 -1 -1 -1
1068 0 2 -1.7354 4.685909286556608 -3.519449667249019 -1.1865628634204928 1 0 -1
945 0 2 -1.7354 -0.2739141841360081 -3.529322248218237 -0.41462566812754736 0 1 -1
662 0 1 1.7354 2.0956751181650866 -0.34785891898428956 -1.000872101852666 0 1 0
65 0 1 1.7354 3.4349340703891835 -2.9930402694306553 -3.0579738306404436 1 0 2
375 0 1 1.7354 1.3275830309440166 -0.4404711776941454 -2.8698166276323662 0 0 1
808 0 1 1.7354 3.7067844867048163 -0.4162454797037787 -4.566865641968928 0 -1 -2
40 0 1 1.7354 4.496764406127183 -1.4221687166697063 -1.1528063264866755 1 1 0
1658 0 2 -1.7354 2.435775355084016 -1.2193511107287498 -4.177028509781524 0 2 1
696 0 1 1.7354 2.332667723992806 -1.2908351588825817 -4.338613406059802 0 2 1
1511 0 2 -1.7354 4.204655475637576 -1.1439069366676327 -0.9385407091654933 1 1 0
1137 0 2 -1.7354 3.613188024034645 -0.3057774840845608 -4.665824731485648 0 -1 -2
454 0 1 1.7354 3.3741034883923287 -0.3807577601917346 -3.6373502491026053 -1 0 -2
1114 0 2 -1.7354 3.6591836240299616 -2.5987221263302342 -4.007175323973102 -2 1 1
14 0 1 1.7354 3.574610489624066 -0.862325341116306 -0.6528431674757592 1 2 -1
1592 0 2 -1.7354 0.9781337447065022 -2.9353115453788488 -1.3486579048218132 -2 -2 1
1356 0 2 -1.7354 1.3575839463422819 -0.757884588193118 -3.035497312694896 0 0 1
458 0 1 1.7354 4.26426004895496 -5.488213262402927 -4.389553046268208 1 1 -1
1011 0 2 -1.7354 0.7693309475591853 -4.771493043898976 -3.367318234925385 0 0 0
882 0 1 1.7354 0.9862331567586213 -5.157592287404768 -3.7220697107774896 0 0 0
1274 0 2 -1.7354 2.1105910252328863 -3.626958423173731 -3.1569680519830836 -3 1 0
778 0 1 1.7354 2.073134084699199 -3.924128918271999 -2.9944692979349634 -3 1 0
1018 0 2 -1.7354 1.9128504725864461 -0.4554723654083615 -4.87123382359482 3 -1 0
377 0 1 1.7354 3.572530563565194 -2.640748923166258 -3.9703916793588876 -2 1 1
1412 0 2 -1.7354 -0.15118584518485273 -4.709499229872572 -2.986738670960195 0 1 0
637 0 1 1.7354 1.5159360162775453 -5.086346050908684 -4.970051202627733 1 -1 0
1565 0 2 -1.7354 1.632271698214732 -4.993937805202366 -5.2198679426310175 1 -1 0
1365 0 2 -1.7354 0.7644460051989607 -5.394087934082578 -4.4114453762170935 0 0 -1
1366 0 2 -1.7354 1.927184482903647 -5.173483155549491 -2.7416254423100694 -1 0 1
129 0 1 1.7354 1.8992302259540028 -5.201237559788029 -2.839011577689579 -1 0 1
618 0 1 1.7354 2.8594081882271354 -5.4174368447515935 -1.7803759857094108 0 1 1
1151 0 2 -1.7354 2.9711697049000483 5.47783729600931 -1.9521864894810952 0 0 1
1322 0 2 -1.7354 1.059391529155609 -4.121449587266215 -0.8937349152642677 1 1 2
61 0 1 1.7354 1.1113317719214761 -4.480933997822294 -1.0232098025286196 1 1 2
1313 0 2 -1.7354 4.315112523461061 -5.293193187063391 -4.353506633303094 1 1 -1
752 0 1 1.7354 2.377143856390178 -4.9162827438130385 -1.4507126571126125 -1 1 2
1331 0 2 -1.7354 2.398000398618345 -4.735199888023167 -1.1923863317705476 -1 1 2
492 0 1 1.7354 -0.08655356779572326 -2.7575424901913395 -2.366549526128964 -1 0 0
1478 0 2 -1.7354 -0.05349373857697611 -2.4213625995730688 -2.4291480832005283 -1 0 0
200 0 1 1.7354 3.2968332219727086 -2.0316854729176126 -0.9092916232916155 -1 0 1
1169 0 2 -1.7354 3.0291457505032207 -1.9645957322351573 -1.0934712960826962 -1 0 1
1747 0 2 -1.7354 0.14864353841111508 -3.1831879786367483 -0.8047231244764192 1 -1 0
928 0 2 -1.7354 1.7442974081375582 -1.5166976273929422 -0.8759470471201669 0 1 -1
80 0 1 1.7354 1.8972570113915534 -1.4901090918076254 -0.6136730120826717 0 1 -1
100 0 1 1.7354 0.3502754551376549 -1.6766702618535951 -5.371841712714362 1 0 0
1332 0 2 -1.7354 0.6286051705588891 -1.5729786183285834 -5.319176086141722 1 0 0
168 0 1 1.7354 1.0872200970844061 -4.016519095537721 -5.016760112599749 0 2 1
1605 0 2 -1.7354 0.8208232997914432 -4.025309711959112 -5.045077199753629 0 2 1
1354 0 2 -1.7354 3.25691991468664 -1.1503303172292412 -1.3093821551757594 -2 -1 1
868 0 1 1.7354 3.097801519411952 -0.929900355071445 -1.3771450057524688 -2 -1 1
1336 0 2 -1.7354 1.723712720377577 -0.47677737254888053 -0.7060153139371806 0 1 0
427 0 1 1.7354 -0.14125598455207633 -2.5454909534579833 -0.7396580888450891 1 -1 0
1228 0 2 -1.7354 4.2190714344897104 -4.643217894088136 -0.5094472485695771 0 1 -1
283 0 1 1.7354 4.311686113685585 -4.692755001128719 -0.9558237091069446 0 1 -1
75 0 1 1.7354 3.7509816041501054 -5.029488001393263 -0.5724575974230794 -2 2 -1
1241 0 2 -1.7354 3.499580483484629 -4.891529169813154 -0.6447424668287256 -2 2 -1
475 0 1 1.7354 1.5453690507479474 -3.716860949809659 -4.20527948280452 2 -1 2
969 0 2 -1.7354 2.66997856576157 -0.9243151720265558 -5.167558617874796 0 -1 0
392 0 1 1.7354 2.5551491636473007 -0.6292404919705842 -5.171803303289428 0 -1 0
1563 0 2 -1.7354 0.2141814526784492 -4.846320951577992 -4.693986982986256 1 2 1
482 0 1 1.7354 0.6619621137839399 -4.82542343519992 -4.55417419752385 1 2 1
830 0 1 1.7354 4.687788044622759 -3.6160082120075274 -4.291090073207038 0 0 1
359 0 1 1.7354 -0.32413930654142026 -5.15655708297433 -4.63856681670116 1 3 1