LAMMPS data file via write_data, version 2 Aug 2023, timestep = 38, units = lj

60 atoms
2 atom types
30 bonds
1 bond types

-5.5 5.5 xlo xhi
-5.5 5.5 ylo yhi
-5.5 5.5 zlo zhi

Masses

1 17.6
2 0.4

Bond Coeffs # harmonic

1 500 0

Atoms # full

22 0 1 1.7354 -0.39297200846439423 -4.00947162613297 -5.2064283513646545 0 0 0
15 0 1 1.7354 -4.779723231498511 -2.1410536062740175 -4.932246068214215 0 0 0
8 0 1 1.7354 -4.812079958336182 -2.214539097200722 -4.9125608676694394 0 0 0
29 0 1 1.7354 -4.795780471317281 -2.2724746813073424 -4.926127048086334 0 0 0
17 0 1 1.7354 -1.0886015770725677 0.7153622949402552 -4.134103490586217 0 0 0
7 0 1 1.7354 0.6733451027701172 1.4826520583291565 -5.31658419406471 0 0 0
23 0 1 1.7354 1.4201658598344367 1.9994497430174847 5.036969730762753 0 0 -1
2 0 1 1.7354 -4.884190388420469 4.433167399016813 -5.335189662791283 1 0 0
9 0 1 1.7354 -4.884190388420469 4.4331673990168134 -5.335189662791283 0 0 0
14 0 1 1.7354 1.7442526105646228 -4.528425142154096 -3.8677907696545764 0 0 0
30 0 1 1.7354 -2.8533366139431804 -3.421188965035796 -2.2097822053562006 0 0 0
25 0 1 1.7354 -1.697586704629734 0.5034666879759163 -3.7024948861850793 0 0 0
27 0 1 1.7354 -0.20824567578798928 1.048340312780813 -4.68348644422407 0 0 0
6 0 1 1.7354 3.8960865044131032 -4.591565626024701 -1.436829296247372 0 0 0
10 0 1 1.7354 -2.5477153293238093 -3.222365615661513 -1.8195705848094856 0 0 0
5 0 1 1.7354 -4.552584998891 5.082254715745557 -0.9088854642118003 0 0 0
18 0 1 1.7354 3.810353864136644 0.01517068143839893 1.0241761787343 0 0 0
1 0 1 1.7354 -0.8243468747919108 3.700346838933646 -0.059813470761083724 0 0 0
21 0 1 1.7354 -1.3460083406419072 4.239477791593047 0.16047559623448884 0 0 0
26 0 1 1.7354 -1.8231232296252444 4.779554016966011 0.4531003260696485 0 -1 0
20 0 1 1.7354 -4.408961124409799 -1.4927965369796738 2.0196658865263672 0 0 0
4 0 1 1.7354 3.607061673687158 -0.3141740110594622 1.2648799596727027 0 0 0
19 0 1 1.7354 2.5436790793779203 3.3595200504921263 3.636553824285419 0 0 0
3 0 1 1.7354 2.7369267886163855 3.7871714831114676 3.4761208800460808 0 -1 0
24 0 1 1.7354 2.1644470444374466 2.7216769377269 4.088532051246436 0 0 0
13 0 1 1.7354 2.4946449527924996 3.2993078764018127 3.6761528755674124 0 0 0
16 0 1 1.7354 2.429466509277329 3.2285560253007244 3.503451609932003 0 0 0
28 0 1 1.7354 -0.3337169261884384 -3.555085289885946 -5.400037688608102 0 0 1
12 0 1 1.7354 -2.5759930657101373 2.1472899486719865 3.9771752259324202 0 0 0
11 0 1 1.7354 -4.8401335796690095 4.4704808290294995 -5.324316024733649 0 0 1
31 0 2 -1.7354 -0.3850355835811448 -4.013978813752914 -5.199546797954784 0 0 0
32 0 2 -1.7354 -4.813420170628628 -2.2219954361382728 -4.911551450133399 0 0 0
33 0 2 -1.7354 -4.7293721235010295 -2.220586381709103 -4.934551227415282 0 0 0
34 0 2 -1.7354 -4.822192350815401 -2.184446751915739 -4.911635518712028 0 0 0
35 0 2 -1.7354 -1.086679959285371 0.724290454010002 -4.1246211014278185 0 0 0
36 0 2 -1.7354 0.6761842422751274 1.4903199135547864 -5.316415319959618 0 0 0
37 0 2 -1.7354 1.413816059569187 2.001537208427803 5.0385098474263055 0 0 -1
38 0 2 -1.7354 -4.904253898985911 4.372678187333176 -5.331594674137182 1 0 0
39 0 2 -1.7354 -4.808511313974662 4.468929605046674 -5.329810410752114 0 0 0
40 0 2 -1.7354 1.729943947822195 -4.523850868113449 -3.8746339071870595 0 0 0
41 0 2 -1.7354 -2.855639512909927 -3.431216357345611 -2.2083579773066493 0 0 0
42 0 2 -1.7354 -1.7025227467720423 0.5067031197933365 -3.704214151833135 0 0 0
43 0 2 -1.7354 -0.22039967375976724 1.052664586734886 -4.687791862609201 0 0 0
44 0 2 -1.7354 3.9034833232215673 -4.59053047341775 -1.4385084574902405 0 0 0
45 0 2 -1.7354 -2.54613707130965 -3.229514749827618 -1.811683377776082 0 0 0
46 0 2 -1.7354 -4.549610174097473 5.086223641572836 -0.9091641674584181 0 0 0
47 0 2 -1.7354 3.808724889908987 0.020846718512373484 1.0238595726002058 0 0 0
48 0 2 -1.7354 -0.8250567741393379 3.693720416511782 -0.05017314084925638 0 0 0
49 0 2 -1.7354 -1.3346395044948727 4.237460881266622 0.185422213735487 0 0 0
50 0 2 -1.7354 -1.8213288447321767 4.777469478256384 0.45992304502032966 0 -1 0
51 0 2 -1.7354 -4.413200808075614 -1.49233402978111 2.019637121491638 0 0 0
52 0 2 -1.7354 3.6080124018784923 -0.3139159204947448 1.2720279827920609 0 0 0
53 0 2 -1.7354 2.5817999435618497 3.4023499084390365 3.6279847866941317 0 0 0
54 0 2 -1.7354 2.7424574905505006 3.8076556066978644 3.4709301283841447 0 -1 0
55 0 2 -1.7354 2.1547585558881774 2.7195410020602067 4.092636242856513 0 0 0
56 0 2 -1.7354 2.5110185563640313 3.2369006941430887 3.7386349277843807 0 0 0
57 0 2 -1.7354 2.3676511998548433 3.236806880665454 3.4475316448665834 0 0 0
58 0 2 -1.7354 -0.3253788684006723 -3.551953829237251 -5.3961796553935955 0 0 1
59 0 2 -1.7354 -2.575818369256114 2.1475561709057644 3.9809674918206768 0 0 0
60 0 2 -1.7354 -4.874117564940789 4.485483745029299 -5.346233961727069 0 0 1

Velocities

22 0 0 0
15 0 0 0
8 0 0 0
29 0 0 0
17 0 0 0
7 0 0 0
23 0 0 0
2 0 0 0
9 0 0 0
14 0 0 0
30 0 0 0
25 0 0 0
27 0 0 0
6 0 0 0
10 0 0 0
5 0 0 0
18 0 0 0
1 0 0 0
21 0 0 0
26 0 0 0
20 0 0 0
4 0 0 0
19 0 0 0
3 0 0 0
24 0 0 0
13 0 0 0
16 0 0 0
28 0 0 0
12 0 0 0
11 0 0 0
31 0 0 0
32 0 0 0
33 0 0 0
34 0 0 0
35 0 0 0
36 0 0 0
37 0 0 0
38 0 0 0
39 0 0 0
40 0 0 0
41 0 0 0
42 0 0 0
43 0 0 0
44 0 0 0
45 0 0 0
46 0 0 0
47 0 0 0
48 0 0 0
49 0 0 0
50 0 0 0
51 0 0 0
52 0 0 0
53 0 0 0
54 0 0 0
55 0 0 0
56 0 0 0
57 0 0 0
58 0 0 0
59 0 0 0
60 0 0 0

Bonds

1 1 22 31
2 1 15 32
3 1 8 33
4 1 29 34
5 1 17 35
6 1 7 36
7 1 23 37
8 1 2 38
9 1 9 39
10 1 14 40
11 1 30 41
12 1 25 42
13 1 27 43
14 1 6 44
15 1 10 45
16 1 5 46
17 1 18 47
18 1 1 48
19 1 21 49
20 1 26 50
21 1 20 51
22 1 4 52
23 1 19 53
24 1 3 54
25 1 24 55
26 1 13 56
27 1 16 57
28 1 28 58
29 1 12 59
30 1 11 60
