LAMMPS data file via write_data, version 2 Aug 2023, timestep = 36, units = lj

20 atoms
0 bonds
1 atom types
0 angles
0 dihedrals
0 impropers
0 bond types
0 angle types
0 dihedral types
0 improper types


-5.5 5.5 xlo xhi
-5.5 5.5 ylo yhi
-5.5 5.5 zlo zhi


Bond Coeffs

Bonds

Masses

1 18 # hi

Atoms # full

15 0 1 0 -5.0656636464038565 -3.044915893519087 -4.854785210071587 0 0 0
8 0 1 0 -4.199607485134591 -2.3669918731527213 -5.079049243010979 0 0 0
17 0 1 0 -1.7787159997602182 1.1740274577166656 -4.662433067497431 0 0 0
7 0 1 0 0.0844263333020502 1.8995483798552413 -4.748464861449638 0 0 0
2 0 1 0 -5.136281519787824 3.8749456631111046 -5.276361884639349 1 0 0
9 0 1 0 -4.212735090521571 4.508108468965613 -5.198272728923994 0 0 0
14 0 1 0 1.7688136921584663 -4.548275892645249 -3.8729276887015103 0 0 0
6 0 1 0 3.893937254507996 -4.596563484099025 -1.4424772523075697 0 0 0
10 0 1 0 -2.2064621540282214 -3.0094227523121155 -1.3681981097293079 0 0 0
5 0 1 0 -4.564759760193881 5.0827104214498355 -0.8859466926129294 0 0 0
18 0 1 0 3.9394538669164403 0.2711572671608146 0.8312675410496675 0 0 0
1 0 1 0 -0.30742148720073637 3.1670646172329153 -0.14497816639252825 0 0 0
20 0 1 0 -4.3897467986167165 -1.4744443511471355 2.0137902700872115 0 0 0
4 0 1 0 3.4844009476576163 -0.5432887210214267 1.4553874236388713 0 0 0
19 0 1 0 2.6272769680213806 4.001828576620206 2.683878112166462 0 0 0
3 0 1 0 2.9626702070886775 4.871564584946229 3.294986670995734 0 -1 0
13 0 1 0 2.8211454740553035 2.9671935319840883 3.0660184303589637 0 0 0
16 0 1 0 3.3163236406779864 3.8449967035834858 3.555272417838582 0 0 0
12 0 1 0 -2.565469769791453 2.1495791150487857 3.976186624949884 0 0 0
11 0 1 0 -5.18115831842197 4.966918679846634 5.467684609300986 0 0 0

Velocities

15 0 0 0
8 0 0 0
17 0 0 0
7 0 0 0
2 0 0 0
9 0 0 0
14 0 0 0
6 0 0 0
10 0 0 0
5 0 0 0
18 0 0 0
1 0 0 0
20 0 0 0
4 0 0 0
19 0 0 0
3 0 0 0
13 0 0 0
16 0 0 0
12 0 0 0
11 0 0 0
