LAMMPS data file via write_data, version 2 Aug 2023, timestep = 36, units = lj

40 atoms
20 bonds
0 angles
0 dihedrals
0 impropers
2 atom types
1 bond types
0 angle types
0 dihedral types
0 improper types
-5.500000 5.500000 xlo xhi
-5.500000 5.500000 ylo yhi
-5.500000 5.500000 zlo zhi

Masses

   1   17.600  # hi DC
   2    0.400  # hi DP

Bond Coeffs

   1   500.000000     0.000000  # hi DC-DP

Atoms

     15       0    1   1.7354 -5.065664e+00 -3.044916e+00 -4.854785e+00  0 0 0 # DC
      8       0    1   1.7354 -4.199607e+00 -2.366992e+00 -5.079049e+00  0 0 0 # DC
     17       0    1   1.7354 -1.778716e+00  1.174027e+00 -4.662433e+00  0 0 0 # DC
      7       0    1   1.7354  8.442633e-02  1.899548e+00 -4.748465e+00  0 0 0 # DC
      2       0    1   1.7354 -5.136282e+00  3.874946e+00 -5.276362e+00  1 0 0 # DC
      9       0    1   1.7354 -4.212735e+00  4.508108e+00 -5.198273e+00  0 0 0 # DC
     14       0    1   1.7354  1.768814e+00 -4.548276e+00 -3.872928e+00  0 0 0 # DC
      6       0    1   1.7354  3.893937e+00 -4.596563e+00 -1.442477e+00  0 0 0 # DC
     10       0    1   1.7354 -2.206462e+00 -3.009423e+00 -1.368198e+00  0 0 0 # DC
      5       0    1   1.7354 -4.564760e+00  5.082710e+00 -8.859467e-01  0 0 0 # DC
     18       0    1   1.7354  3.939454e+00  2.711573e-01  8.312675e-01  0 0 0 # DC
      1       0    1   1.7354 -3.074215e-01  3.167065e+00 -1.449782e-01  0 0 0 # DC
     20       0    1   1.7354 -4.389747e+00 -1.474444e+00  2.013790e+00  0 0 0 # DC
      4       0    1   1.7354  3.484401e+00 -5.432887e-01  1.455387e+00  0 0 0 # DC
     19       0    1   1.7354  2.627277e+00  4.001829e+00  2.683878e+00  0 0 0 # DC
      3       0    1   1.7354  2.962670e+00  4.871565e+00  3.294987e+00  0 -1 0 # DC
     13       0    1   1.7354  2.821145e+00  2.967194e+00  3.066018e+00  0 0 0 # DC
     16       0    1   1.7354  3.316324e+00  3.844997e+00  3.555272e+00  0 0 0 # DC
     12       0    1   1.7354 -2.565470e+00  2.149579e+00  3.976187e+00  0 0 0 # DC
     11       0    1   1.7354 -5.181158e+00  4.966919e+00  5.467685e+00  0 0 0 # DC
     21       0    2  -1.7354 -5.110427e+00 -3.086197e+00 -4.864061e+00  0 0 0 # DP
     22       0    2  -1.7354 -4.238837e+00 -2.326872e+00 -5.125234e+00  0 0 0 # DP
     23       0    2  -1.7354 -1.775096e+00  1.157247e+00 -4.627224e+00  0 0 0 # DP
     24       0    2  -1.7354  5.039257e-02  1.883270e+00 -4.765085e+00  0 0 0 # DP
     25       0    2  -1.7354 -5.161765e+00  3.825113e+00 -5.282734e+00  1 0 0 # DP
     26       0    2  -1.7354 -4.253974e+00  4.517868e+00 -5.241285e+00  0 0 0 # DP
     27       0    2  -1.7354  1.750360e+00 -4.553444e+00 -3.832388e+00  0 0 0 # DP
     28       0    2  -1.7354  3.853214e+00 -4.632346e+00 -1.413470e+00  0 0 0 # DP
     29       0    2  -1.7354 -2.254339e+00 -2.968308e+00 -1.360857e+00  0 0 0 # DP
     30       0    2  -1.7354 -4.588228e+00  5.116494e+00 -8.590672e-01  0 0 0 # DP
     31       0    2  -1.7354  3.923800e+00  3.013069e-01  8.019538e-01  0 0 0 # DP
     32       0    2  -1.7354 -2.965312e-01  3.169772e+00 -1.140443e-01  0 0 0 # DP
     33       0    2  -1.7354 -4.408220e+00 -1.484621e+00  2.040718e+00  0 0 0 # DP
     34       0    2  -1.7354  3.485676e+00 -5.248050e-01  1.469223e+00  0 0 0 # DP
     35       0    2  -1.7354  2.643943e+00  4.040838e+00  2.682492e+00  0 0 0 # DP
     36       0    2  -1.7354  2.979517e+00  4.859017e+00  3.248171e+00  0 -1 0 # DP
     37       0    2  -1.7354  2.846563e+00  2.935340e+00  3.098037e+00  0 0 0 # DP
     38       0    2  -1.7354  3.357688e+00  3.860804e+00  3.522285e+00  0 0 0 # DP
     39       0    2  -1.7354 -2.581778e+00  2.138698e+00  3.933516e+00  0 0 0 # DP
     40       0    2  -1.7354 -5.185482e+00  4.974236e+00  5.451295e+00  0 0 0 # DP

Velocities

     15  0.000000e+00  0.000000e+00  0.000000e+00 
      8  0.000000e+00  0.000000e+00  0.000000e+00 
     17  0.000000e+00  0.000000e+00  0.000000e+00 
      7  0.000000e+00  0.000000e+00  0.000000e+00 
      2  0.000000e+00  0.000000e+00  0.000000e+00 
      9  0.000000e+00  0.000000e+00  0.000000e+00 
     14  0.000000e+00  0.000000e+00  0.000000e+00 
      6  0.000000e+00  0.000000e+00  0.000000e+00 
     10  0.000000e+00  0.000000e+00  0.000000e+00 
      5  0.000000e+00  0.000000e+00  0.000000e+00 
     18  0.000000e+00  0.000000e+00  0.000000e+00 
      1  0.000000e+00  0.000000e+00  0.000000e+00 
     20  0.000000e+00  0.000000e+00  0.000000e+00 
      4  0.000000e+00  0.000000e+00  0.000000e+00 
     19  0.000000e+00  0.000000e+00  0.000000e+00 
      3  0.000000e+00  0.000000e+00  0.000000e+00 
     13  0.000000e+00  0.000000e+00  0.000000e+00 
     16  0.000000e+00  0.000000e+00  0.000000e+00 
     12  0.000000e+00  0.000000e+00  0.000000e+00 
     11  0.000000e+00  0.000000e+00  0.000000e+00 
     21  0.000000e+00  0.000000e+00  0.000000e+00 
     22  0.000000e+00  0.000000e+00  0.000000e+00 
     23  0.000000e+00  0.000000e+00  0.000000e+00 
     24  0.000000e+00  0.000000e+00  0.000000e+00 
     25  0.000000e+00  0.000000e+00  0.000000e+00 
     26  0.000000e+00  0.000000e+00  0.000000e+00 
     27  0.000000e+00  0.000000e+00  0.000000e+00 
     28  0.000000e+00  0.000000e+00  0.000000e+00 
     29  0.000000e+00  0.000000e+00  0.000000e+00 
     30  0.000000e+00  0.000000e+00  0.000000e+00 
     31  0.000000e+00  0.000000e+00  0.000000e+00 
     32  0.000000e+00  0.000000e+00  0.000000e+00 
     33  0.000000e+00  0.000000e+00  0.000000e+00 
     34  0.000000e+00  0.000000e+00  0.000000e+00 
     35  0.000000e+00  0.000000e+00  0.000000e+00 
     36  0.000000e+00  0.000000e+00  0.000000e+00 
     37  0.000000e+00  0.000000e+00  0.000000e+00 
     38  0.000000e+00  0.000000e+00  0.000000e+00 
     39  0.000000e+00  0.000000e+00  0.000000e+00 
     40  0.000000e+00  0.000000e+00  0.000000e+00 

Bonds

      1    1      15      21  # hi DC-DP
      2    1       8      22  # hi DC-DP
      3    1      17      23  # hi DC-DP
      4    1       7      24  # hi DC-DP
      5    1       2      25  # hi DC-DP
      6    1       9      26  # hi DC-DP
      7    1      14      27  # hi DC-DP
      8    1       6      28  # hi DC-DP
      9    1      10      29  # hi DC-DP
     10    1       5      30  # hi DC-DP
     11    1      18      31  # hi DC-DP
     12    1       1      32  # hi DC-DP
     13    1      20      33  # hi DC-DP
     14    1       4      34  # hi DC-DP
     15    1      19      35  # hi DC-DP
     16    1       3      36  # hi DC-DP
     17    1      13      37  # hi DC-DP
     18    1      16      38  # hi DC-DP
     19    1      12      39  # hi DC-DP
     20    1      11      40  # hi DC-DP
