LAMMPS data file via write_data, version 2 Aug 2023, timestep = 291, units = lj

1800 atoms
900 bonds
0 angles
0 dihedrals
0 impropers
2 atom types
1 bond types
0 angle types
0 dihedral types
0 improper types
-5.500000 5.500000 xlo xhi
-5.500000 5.500000 ylo yhi
-5.500000 5.500000 zlo zhi

Masses

   1   17.600  # hi DC
   2    0.400  # hi DP

Bond Coeffs

   1   500.000000     0.000000  # hi DC-DP

Atoms

    581       0    1   2.1261 -5.052944e+00 -4.679610e+00 -4.732345e+00  0 0 0 # DC
    716       0    1   2.1261 -4.334927e+00 -4.102607e+00 -4.212989e+00  0 0 0 # DC
     91       0    1   2.1261 -3.821171e+00 -3.534379e+00 -3.503016e+00  0 0 0 # DC
    251       0    1   2.1261 -3.277163e+00 -4.323514e+00 -4.087335e+00  0 0 0 # DC
    417       0    1   2.1261 -2.625006e+00 -3.934258e+00 -4.850284e+00  0 0 0 # DC
    753       0    1   2.1261 -3.273962e+00 -3.228601e+00 -4.378859e+00  0 0 0 # DC
    412       0    1   2.1261 -1.508661e+00 -4.066692e+00 -4.636101e+00  0 0 0 # DC
    545       0    1   2.1261 -1.887752e+00 -3.057691e+00 -4.557525e+00  0 0 0 # DC
    869       0    1   2.1261 -2.055659e+00 -4.642925e+00 -5.467551e+00  0 0 0 # DC
    872       0    1   2.1261 -2.331883e+00 -3.728559e+00 -3.837048e+00  0 0 0 # DC
    881       0    1   2.1261 -1.100204e+00 -4.242401e+00  5.148234e+00  0 0 -1 # DC
     22       0    1   2.1261 -2.951921e-01 -4.213947e+00 -5.121193e+00  0 0 0 # DC
    164       0    1   2.1261 -9.280817e-01 -3.314851e+00 -5.185874e+00  0 0 0 # DC
    596       0    1   2.1261 -1.094744e+00 -4.994065e+00 -5.007355e+00  0 0 0 # DC
    424       0    1   2.1261  2.615726e+00 -3.828410e+00 -4.043828e+00  0 0 0 # DC
    852       0    1   2.1261  3.282343e+00 -4.349763e+00 -4.750332e+00  0 0 0 # DC
    855       0    1   2.1261  3.048185e+00 -3.255071e+00 -4.831529e+00  0 0 0 # DC
    157       0    1   2.1261  4.091247e+00 -4.912969e+00 -4.173131e+00  0 0 0 # DC
    554       0    1   2.1261  3.854773e+00 -3.689829e+00 -4.102420e+00  0 0 0 # DC
    680       0    1   2.1261  4.342581e+00 -4.237520e+00 -4.947751e+00  0 0 0 # DC
    745       0    1   2.1261  4.610260e+00 -3.671806e+00  4.896152e+00  0 0 -1 # DC
    148       0    1   2.1261 -5.016163e+00 -4.673798e+00 -3.611290e+00  1 0 0 # DC
    238       0    1   2.1261  5.259158e+00 -4.283521e+00 -2.898308e+00  0 0 0 # DC
    254       0    1   2.1261  5.070674e+00 -4.297561e+00 -4.122939e+00  0 0 0 # DC
    456       0    1   2.1261 -5.204942e+00 -3.530583e+00 -3.830898e+00  1 0 0 # DC
    889       0    1   2.1261  4.954859e+00 -5.176593e+00 -4.770283e+00  0 0 0 # DC
     15       0    1   2.1261 -4.337875e+00 -3.040386e+00 -4.297484e+00  0 0 0 # DC
     80       0    1   2.1261 -8.004231e-01 -2.633732e+00 -4.392385e+00  0 0 0 # DC
    476       0    1   2.1261 -1.738899e+00 -2.019650e+00 -4.399621e+00  0 0 0 # DC
    614       0    1   2.1261 -1.635049e+00 -2.494002e+00 -5.466504e+00  0 0 0 # DC
    246       0    1   2.1261  1.269457e-01 -3.137352e+00 -4.865218e+00  0 0 0 # DC
    670       0    1   2.1261  2.186117e+00 -2.781824e+00 -4.303767e+00  0 0 0 # DC
    711       0    1   2.1261  1.310013e+00 -2.628388e+00 -3.671364e+00  0 0 0 # DC
    552       0    1   2.1261  4.011457e+00 -3.259356e+00 -5.276875e+00  0 0 0 # DC
    885       0    1   2.1261  3.151602e+00 -2.907957e+00 -3.772264e+00  0 0 0 # DC
     41       0    1   2.1261 -5.319838e+00 -2.761132e+00 -4.643418e+00  1 0 0 # DC
    630       0    1   2.1261  4.853360e+00 -3.368353e+00 -4.623323e+00  0 0 0 # DC
    653       0    1   2.1261  4.758708e+00 -3.407136e+00 -3.543268e+00  0 0 0 # DC
    893       0    1   2.1261 -4.751467e+00 -3.601192e+00 -5.101563e+00  1 0 0 # DC
      8       0    1   2.1261 -3.825614e+00 -2.192395e+00 -4.663099e+00  0 0 0 # DC
     29       0    1   2.1261  5.482178e+00 -9.199826e-01 -4.395634e+00  -1 0 0 # DC
     59       0    1   2.1261 -3.515561e+00 -1.401049e+00 -3.941921e+00  0 0 0 # DC
     74       0    1   2.1261 -4.835501e+00 -1.867675e+00 -4.998100e+00  0 0 0 # DC
    449       0    1   2.1261 -4.812899e+00 -2.136262e+00 -3.967467e+00  0 0 0 # DC
    509       0    1   2.1261 -4.512811e+00 -1.152468e+00 -4.196375e+00  0 0 0 # DC
    567       0    1   2.1261  5.324338e+00 -2.512889e+00 -3.423036e+00  -1 0 0 # DC
    683       0    1   2.1261  5.095979e+00 -1.905785e+00 -4.304129e+00  -1 0 0 # DC
    347       0    1   2.1261 -3.849781e+00 -1.194548e+00 -5.052473e+00  0 0 0 # DC
    540       0    1   2.1261 -2.823688e+00 -2.263258e+00 -4.244532e+00  0 0 0 # DC
    687       0    1   2.1261 -2.948863e+00 -1.780143e+00 -5.189544e+00  0 0 0 # DC
    807       0    1   2.1261 -3.732879e+00 -2.436615e+00 -3.618417e+00  0 0 0 # DC
    473       0    1   2.1261 -1.992226e+00 -1.256458e+00 -5.242252e+00  0 0 0 # DC
    646       0    1   2.1261 -2.492576e+00 -1.233320e+00 -4.294697e+00  0 0 0 # DC
    191       0    1   2.1261 -1.927200e-01 -1.851581e+00 -3.168133e+00  0 0 0 # DC
    356       0    1   2.1261  2.388759e-01 -2.401879e+00 -4.020845e+00  0 0 0 # DC
    376       0    1   2.1261 -1.381337e+00 -9.956422e-01 -4.362065e+00  0 0 0 # DC
    560       0    1   2.1261  1.956445e-01 -8.902141e-01 -3.813662e+00  0 0 0 # DC
    183       0    1   2.1261  8.536861e-01 -1.680592e+00 -3.458077e+00  0 0 0 # DC
    192       0    1   2.1261  1.598933e+00 -9.572726e-01 -4.941373e+00  0 0 0 # DC
    564       0    1   2.1261  1.682578e+00 -1.753100e+00 -4.192790e+00  0 0 0 # DC
    176       0    1   2.1261  2.951658e+00 -1.111104e+00 -3.040734e+00  0 0 0 # DC
    255       0    1   2.1261  3.445212e+00 -1.908635e+00 -3.535516e+00  0 0 0 # DC
    491       0    1   2.1261  4.035480e+00 -1.579673e+00 -4.413753e+00  0 0 0 # DC
    760       0    1   2.1261  3.437328e+00 -8.299410e-01 -4.985766e+00  0 0 0 # DC
    838       0    1   2.1261  2.649523e+00 -1.379715e+00 -4.022774e+00  0 0 0 # DC
     46       0    1   2.1261 -4.092566e+00 -2.196415e-01 -3.906696e+00  0 0 0 # DC
    346       0    1   2.1261 -3.335453e+00  1.080455e-01 -3.258121e+00  0 0 0 # DC
    349       0    1   2.1261 -3.559091e+00  6.494711e-01 -4.208833e+00  0 0 0 # DC
    392       0    1   2.1261 -3.895113e+00 -1.379811e-01 -4.960574e+00  0 0 0 # DC
    787       0    1   2.1261 -3.095075e+00 -3.768183e-01 -4.229505e+00  0 0 0 # DC
     57       0    1   2.1261 -2.093061e+00 -2.808870e-01 -4.714478e+00  0 0 0 # DC
    468       0    1   2.1261 -2.487923e+00  4.781804e-01 -3.935147e+00  0 0 0 # DC
    815       0    1   2.1261 -2.890842e+00  3.739642e-01 -5.006865e+00  0 0 0 # DC
    734       0    1   2.1261 -2.737147e-01 -9.227563e-01 -4.841007e+00  0 0 0 # DC
    766       0    1   2.1261  1.449779e-01  2.643234e-02 -3.299904e+00  0 0 0 # DC
    172       0    1   2.1261  1.309448e+00 -6.623909e-01 -3.911287e+00  0 0 0 # DC
    250       0    1   2.1261  1.649530e+00  9.944096e-02 -4.683599e+00  0 0 0 # DC
    775       0    1   2.1261  6.678651e-01 -4.341337e-01 -4.741731e+00  0 0 0 # DC
    823       0    1   2.1261  1.834779e+00 -1.252107e+00 -3.171256e+00  0 0 0 # DC
    180       0    1   2.1261  3.485853e+00 -7.054358e-01 -3.891355e+00  0 0 0 # DC
    179       0    1   2.1261  4.644558e+00  1.009666e+00 -4.015175e+00  0 0 0 # DC
    322       0    1   2.1261  5.029210e+00  3.813405e-02 -4.273588e+00  0 0 0 # DC
    327       0    1   2.1261  5.472139e+00  4.567007e-01 -3.407747e+00  0 0 0 # DC
    454       0    1   2.1261  4.573351e+00 -8.439356e-01 -3.829000e+00  0 0 0 # DC
    871       0    1   2.1261 -5.017836e+00 -4.820249e-01 -3.494498e+00  1 0 0 # DC
     39       0    1   2.1261 -4.603101e+00  7.947123e-01 -3.883846e+00  0 0 0 # DC
    477       0    1   2.1261 -3.983007e+00  1.652719e+00 -4.189985e+00  0 0 0 # DC
    609       0    1   2.1261 -1.798479e+00  1.324889e+00 -3.841460e+00  0 0 0 # DC
     17       0    1   2.1261 -7.863750e-01 -4.693002e-01 -3.651787e+00  0 0 0 # DC
     86       0    1   2.1261 -5.945498e-01  7.796306e-01 -3.478491e+00  0 0 0 # DC
    190       0    1   2.1261 -2.716424e+00  1.010250e+00  5.086435e+00  0 0 -1 # DC
    241       0    1   2.1261 -3.281167e+00  1.373422e+00 -4.972258e+00  0 0 0 # DC
    295       0    1   2.1261 -1.624218e+00  4.888523e-01 -3.177387e+00  0 0 0 # DC
    391       0    1   2.1261 -1.323168e+00  3.062484e-01 -4.213543e+00  0 0 0 # DC
      7       0    1   2.1261  8.246819e-01  3.809813e-01 -4.067503e+00  0 0 0 # DC
    267       0    1   2.1261  1.393008e-01  1.199645e+00 -4.235426e+00  0 0 0 # DC
    378       0    1   2.1261 -2.137806e-01  1.074702e-01 -4.368850e+00  0 0 0 # DC
    388       0    1   2.1261  5.514981e-01  1.031916e+00 -3.230199e+00  0 0 0 # DC
    495       0    1   2.1261  4.963423e-01  5.704159e-01 -5.106306e+00  0 0 0 # DC
     23       0    1   2.1261  2.449170e+00  1.030832e+00 -4.651622e+00  0 0 0 # DC
    550       0    1   2.1261  1.922257e+00  6.628346e-01 -3.808783e+00  0 0 0 # DC
    106       0    1   2.1261  2.973320e+00  3.338283e-01 -4.031626e+00  0 0 0 # DC
    166       0    1   2.1261  3.715741e+00  9.044444e-01 -3.542558e+00  0 0 0 # DC
    697       0    1   2.1261  3.579735e+00  1.052225e+00 -4.672739e+00  0 0 0 # DC
    664       0    1   2.1261 -5.431895e+00  9.375563e-01 -4.606488e+00  1 0 0 # DC
    732       0    1   2.1261  4.619561e+00  7.476910e-01 -5.096613e+00  0 0 0 # DC
    748       0    1   2.1261 -5.398903e+00  1.509321e+00 -3.700612e+00  1 0 0 # DC
     71       0    1   2.1261 -4.881878e+00  2.808086e+00 -5.290315e+00  0 0 0 # DC
    258       0    1   2.1261 -2.926901e+00  1.518092e+00 -3.852545e+00  0 0 0 # DC
    481       0    1   2.1261 -4.942156e+00  1.915865e+00 -4.638857e+00  0 0 0 # DC
    882       0    1   2.1261 -4.311833e+00  2.739234e+00 -4.189312e+00  0 0 0 # DC
    607       0    1   2.1261  7.814621e-01  1.996774e+00 -3.692173e+00  0 0 0 # DC
    142       0    1   2.1261  2.846154e+00  1.497605e+00 -3.766475e+00  0 0 0 # DC
    143       0    1   2.1261  1.900700e+00  1.868025e+00 -4.147084e+00  0 0 0 # DC
    660       0    1   2.1261  2.969887e+00  1.993592e+00 -4.735898e+00  0 0 0 # DC
    237       0    1   2.1261  4.173893e+00  1.769346e+00 -5.235525e+00  0 0 0 # DC
    240       0    1   2.1261  2.974360e+00  1.091347e+00 -2.796114e+00  0 0 0 # DC
      2       0    1   2.1261 -5.499087e+00  3.815283e+00 -5.439542e+00  1 0 0 # DC
    285       0    1   2.1261 -4.916477e+00  3.611809e+00 -4.527142e+00  1 0 0 # DC
    382       0    1   2.1261  4.961722e+00  1.908387e+00 -4.485386e+00  0 0 0 # DC
    489       0    1   2.1261  5.176324e+00  2.941490e+00 -4.786595e+00  0 0 0 # DC
    633       0    1   2.1261 -5.341570e+00  2.590897e+00 -3.851795e+00  1 0 0 # DC
    323       0    1   2.1261 -4.600964e+00  5.438337e+00 -5.202573e+00  0 0 0 # DC
    339       0    1   2.1261 -3.982073e+00 -5.081262e+00 -4.477970e+00  0 1 0 # DC
      9       0    1   2.1261 -4.192431e+00  4.814434e+00 -4.338549e+00  0 0 0 # DC
    271       0    1   2.1261 -3.739483e+00 -4.121479e+00 -5.136771e+00  0 1 0 # DC
    462       0    1   2.1261 -3.100957e+00  5.286480e+00 -4.260326e+00  0 0 0 # DC
    334       0    1   2.1261 -1.384643e+00 -5.350084e+00 -3.943424e+00  0 1 0 # DC
    396       0    1   2.1261 -2.270929e+00 -4.769006e+00 -4.202240e+00  0 1 0 # DC
     47       0    1   2.1261  4.884128e-01  4.663719e+00  4.398230e+00  0 0 -1 # DC
    583       0    1   2.1261  2.415394e-01 -5.294898e+00  4.021571e+00  0 1 -1 # DC
    846       0    1   2.1261  3.104822e+00 -5.349562e+00 -4.341781e+00  0 1 0 # DC
    154       0    1   2.1261  5.487897e+00  4.851399e+00 -5.002809e+00  0 0 0 # DC
    266       0    1   2.1261 -4.395125e+00 -4.690223e+00 -2.190238e+00  0 0 0 # DC
     35       0    1   2.1261 -2.910434e+00 -4.451342e+00 -1.230413e+00  0 0 0 # DC
    115       0    1   2.1261 -3.932317e+00 -4.607698e+00 -3.217252e+00  0 0 0 # DC
    423       0    1   2.1261 -2.070516e+00 -3.486843e+00 -2.807471e+00  0 0 0 # DC
    527       0    1   2.1261 -3.291659e+00 -4.587360e+00 -2.211946e+00  0 0 0 # DC
    546       0    1   2.1261 -2.953428e+00 -4.079516e+00 -3.054825e+00  0 0 0 # DC
    848       0    1   2.1261 -2.977361e+00 -5.115265e+00 -3.374604e+00  0 0 0 # DC
    343       0    1   2.1261 -2.005369e+00 -4.627531e+00 -3.083242e+00  0 0 0 # DC
    710       0    1   2.1261 -1.346036e+00 -3.297922e+00 -3.642071e+00  0 0 0 # DC
    344       0    1   2.1261 -4.989718e-01 -3.689826e+00 -4.184203e+00  0 0 0 # DC
    383       0    1   2.1261 -2.108316e-01 -4.143997e+00 -3.172408e+00  0 0 0 # DC
    779       0    1   2.1261 -3.595167e-01 -4.423270e+00 -1.911614e+00  0 0 0 # DC
    866       0    1   2.1261 -1.148433e+00 -4.020608e+00 -2.558963e+00  0 0 0 # DC
     14       0    1   2.1261  1.561374e+00 -3.662234e+00 -3.891442e+00  0 0 0 # DC
     92       0    1   2.1261  1.829538e+00 -4.261272e+00 -2.966048e+00  0 0 0 # DC
    123       0    1   2.1261  3.254963e+00 -4.522892e+00 -3.583269e+00  0 0 0 # DC
    579       0    1   2.1261  5.128543e-01 -3.441365e+00 -3.710775e+00  0 0 0 # DC
    114       0    1   2.1261  3.656105e+00 -4.520742e+00 -2.478876e+00  0 0 0 # DC
    120       0    1   2.1261  4.284211e+00 -4.338588e+00 -3.314008e+00  0 0 0 # DC
    730       0    1   2.1261  3.832054e+00 -5.363912e+00 -3.220830e+00  0 0 0 # DC
    101       0    1   2.1261  4.616201e+00 -5.098921e+00 -2.504345e+00  0 0 0 # DC
    445       0    1   2.1261  4.971427e+00 -5.208782e+00 -3.560171e+00  0 0 0 # DC
    883       0    1   2.1261 -5.257382e+00 -3.999741e+00 -1.936720e+00  1 0 0 # DC
    133       0    1   2.1261 -4.634498e+00 -2.849938e+00 -3.178065e+00  0 0 0 # DC
     30       0    1   2.1261 -2.906117e+00 -3.521829e+00 -1.883335e+00  0 0 0 # DC
     77       0    1   2.1261 -1.944710e+00 -2.169985e+00 -2.598412e+00  0 0 0 # DC
    321       0    1   2.1261 -3.021482e+00 -3.011712e+00 -3.024564e+00  0 0 0 # DC
    338       0    1   2.1261 -3.861261e+00 -2.452337e+00 -2.505661e+00  0 0 0 # DC
    398       0    1   2.1261 -2.876616e+00 -1.936870e+00 -3.169790e+00  0 0 0 # DC
    408       0    1   2.1261 -3.769492e+00 -3.624921e+00 -2.468544e+00  0 0 0 # DC
     85       0    1   2.1261 -1.153944e+00 -2.916074e+00 -2.606406e+00  0 0 0 # DC
    247       0    1   2.1261 -2.152798e+00 -2.646476e+00 -3.541816e+00  0 0 0 # DC
     98       0    1   2.1261 -7.896329e-02 -3.431261e+00 -2.357989e+00  0 0 0 # DC
    244       0    1   2.1261  5.063714e-01 -2.618333e+00 -2.927825e+00  0 0 0 # DC
    694       0    1   2.1261 -3.842418e-01 -2.990908e+00 -3.339713e+00  0 0 0 # DC
    411       0    1   2.1261  1.285320e+00 -3.325469e+00 -2.863290e+00  0 0 0 # DC
    619       0    1   2.1261  2.322734e+00 -3.278059e+00 -3.175336e+00  0 0 0 # DC
    131       0    1   2.1261  4.422474e+00 -3.598302e+00 -2.535807e+00  0 0 0 # DC
    249       0    1   2.1261  4.030569e+00 -2.738571e+00 -3.111668e+00  0 0 0 # DC
    593       0    1   2.1261  3.415707e+00 -3.608627e+00 -3.007504e+00  0 0 0 # DC
    887       0    1   2.1261  3.009466e+00 -2.562927e+00 -2.704475e+00  0 0 0 # DC
    444       0    1   2.1261 -4.706393e+00 -3.904399e+00 -2.913495e+00  1 0 0 # DC
    612       0    1   2.1261  5.464400e+00 -3.249881e+00 -2.667049e+00  0 0 0 # DC
    627       0    1   2.1261  4.927240e+00 -1.483720e+00 -2.467409e+00  0 0 0 # DC
    765       0    1   2.1261 -5.480644e+00 -2.867094e+00 -1.571831e+00  1 0 0 # DC
    109       0    1   2.1261 -5.149166e+00 -2.177808e+00 -2.450229e+00  0 0 0 # DC
    589       0    1   2.1261 -3.987602e+00 -7.777345e-01 -2.987027e+00  0 0 0 # DC
    601       0    1   2.1261 -4.405494e+00 -1.724305e+00 -3.115760e+00  0 0 0 # DC
    631       0    1   2.1261 -5.464784e+00 -1.451847e+00 -3.407948e+00  0 0 0 # DC
    736       0    1   2.1261 -4.599742e+00 -2.222024e+00 -1.378351e+00  0 0 0 # DC
    224       0    1   2.1261 -1.970216e+00 -4.288228e-01 -3.644185e+00  0 0 0 # DC
    113       0    1   2.1261 -2.142864e+00 -1.116930e+00 -2.460155e+00  0 0 0 # DC
    566       0    1   2.1261 -1.888720e+00 -1.473488e+00 -3.441251e+00  0 0 0 # DC
    725       0    1   2.1261 -1.158547e+00 -2.238717e+00 -3.447638e+00  0 0 0 # DC
    206       0    1   2.1261  1.441654e+00 -2.143908e+00 -2.675210e+00  0 0 0 # DC
    107       0    1   2.1261  2.390314e+00 -1.724628e+00 -2.339807e+00  0 0 0 # DC
    156       0    1   2.1261  2.302900e+00 -2.196532e+00 -3.390077e+00  0 0 0 # DC
    792       0    1   2.1261  2.064024e+00 -2.859116e+00 -2.224499e+00  0 0 0 # DC
    253       0    1   2.1261  3.827071e+00 -1.836527e+00 -2.494180e+00  0 0 0 # DC
    837       0    1   2.1261  4.495225e+00 -1.813215e+00 -3.392647e+00  0 0 0 # DC
     69       0    1   2.1261 -3.609325e+00  6.548869e-01 -2.314846e+00  0 0 0 # DC
    422       0    1   2.1261 -3.321331e+00 -3.612632e-01 -2.275552e+00  0 0 0 # DC
    879       0    1   2.1261 -4.399352e+00  2.370716e-01 -2.948380e+00  0 0 0 # DC
     25       0    1   2.1261 -2.384987e+00 -7.290490e-02 -2.697506e+00  0 0 0 # DC
    134       0    1   2.1261 -2.884838e+00 -8.703422e-01 -3.240531e+00  0 0 0 # DC
    374       0    1   2.1261 -1.410769e+00 -1.059966e+00 -1.668673e+00  0 0 0 # DC
     27       0    1   2.1261 -2.205746e-01 -8.533154e-01 -2.771873e+00  0 0 0 # DC
    146       0    1   2.1261  2.300672e-01  3.717350e-01 -2.300583e+00  0 0 0 # DC
    284       0    1   2.1261  8.675286e-01 -7.695315e-01 -2.907670e+00  0 0 0 # DC
    784       0    1   2.1261  2.262552e+00 -5.397605e-01 -2.457556e+00  0 0 0 # DC
    831       0    1   2.1261  1.377944e+00 -9.423499e-02 -2.083732e+00  0 0 0 # DC
    332       0    1   2.1261  3.298083e+00 -2.150131e-02 -3.046774e+00  0 0 0 # DC
    538       0    1   2.1261  3.159763e+00 -9.292176e-01 -2.020280e+00  0 0 0 # DC
    577       0    1   2.1261  2.289285e+00 -3.245988e-01 -3.508607e+00  0 0 0 # DC
    198       0    1   2.1261  4.378624e+00  1.207960e-01 -3.360510e+00  0 0 0 # DC
    426       0    1   2.1261  3.895090e+00  8.715256e-01 -2.287828e+00  0 0 0 # DC
    430       0    1   2.1261  4.017371e+00 -8.554464e-01 -2.889273e+00  0 0 0 # DC
    443       0    1   2.1261  5.085805e+00 -5.491444e-01 -2.940741e+00  0 0 0 # DC
    118       0    1   2.1261 -4.451032e+00  2.027761e+00 -3.314051e+00  0 0 0 # DC
    372       0    1   2.1261 -4.151075e+00  1.832279e+00 -1.244059e+00  0 0 0 # DC
    377       0    1   2.1261 -4.929791e+00  1.156884e+00 -2.806407e+00  0 0 0 # DC
    533       0    1   2.1261 -3.799590e+00  1.131801e+00 -3.247430e+00  0 0 0 # DC
    590       0    1   2.1261 -4.076512e+00  1.647420e+00 -2.314506e+00  0 0 0 # DC
    841       0    1   2.1261 -3.327242e+00  2.082365e+00 -2.951607e+00  0 0 0 # DC
    130       0    1   2.1261 -2.975733e+00  1.501156e+00 -2.059859e+00  0 0 0 # DC
    195       0    1   2.1261 -1.226238e+00  1.455313e+00 -2.894835e+00  0 0 0 # DC
    227       0    1   2.1261 -1.958261e+00  9.575596e-01 -2.243035e+00  0 0 0 # DC
    337       0    1   2.1261 -2.748025e+00  9.185363e-01 -2.957754e+00  0 0 0 # DC
    394       0    1   2.1261 -2.242026e+00  1.837591e+00 -2.948700e+00  0 0 0 # DC
    209       0    1   2.1261  2.071644e-01  2.745821e+00 -2.949395e+00  0 0 0 # DC
    384       0    1   2.1261  1.212230e+00  1.895361e-01 -3.117014e+00  0 0 0 # DC
    568       0    1   2.1261 -1.963659e-01  1.356072e+00 -2.564515e+00  0 0 0 # DC
    706       0    1   2.1261 -1.310507e+00 -4.735800e-01 -2.738252e+00  0 0 0 # DC
    187       0    1   2.1261  1.168027e+00  9.505886e-01 -2.268373e+00  0 0 0 # DC
    756       0    1   2.1261  1.574912e+00  1.438324e+00 -3.176526e+00  0 0 0 # DC
    859       0    1   2.1261  2.118440e+00  5.089234e-01 -2.732313e+00  0 0 0 # DC
    292       0    1   2.1261  3.889129e+00  1.874464e+00 -4.079580e+00  0 0 0 # DC
    302       0    1   2.1261  2.778312e+00  2.180630e+00 -2.853429e+00  0 0 0 # DC
     78       0    1   2.1261 -5.352018e+00  1.594378e-01 -2.367296e+00  1 0 0 # DC
    151       0    1   2.1261  4.772827e+00  1.125750e+00 -2.920722e+00  0 0 0 # DC
    400       0    1   2.1261 -4.536927e+00  2.678070e+00 -2.434041e+00  0 0 0 # DC
    600       0    1   2.1261 -5.404130e+00  2.137055e+00 -2.821411e+00  0 0 0 # DC
    606       0    1   2.1261  5.426683e+00  2.797686e+00 -1.985143e+00  -1 0 0 # DC
    808       0    1   2.1261 -5.061205e+00  1.779046e+00 -1.851179e+00  0 0 0 # DC
     49       0    1   2.1261 -2.500820e+00  3.537176e+00 -2.484726e+00  0 0 0 # DC
    663       0    1   2.1261 -2.619126e+00  2.516451e+00 -2.168441e+00  0 0 0 # DC
    814       0    1   2.1261 -2.548191e+00  2.806044e+00 -3.286756e+00  0 0 0 # DC
    144       0    1   2.1261 -7.671727e-01  3.160504e+00 -3.291506e+00  0 0 0 # DC
    173       0    1   2.1261 -3.376878e-01  1.893394e+00 -3.495723e+00  0 0 0 # DC
    820       0    1   2.1261 -1.424452e+00  2.317941e+00 -3.515450e+00  0 0 0 # DC
    102       0    1   2.1261 -7.103014e-01  2.322868e+00 -2.559510e+00  0 0 0 # DC
    380       0    1   2.1261  4.205148e-01  3.502890e+00 -2.159203e+00  0 0 0 # DC
    117       0    1   2.1261  2.123165e+00  1.526935e+00 -2.273508e+00  0 0 0 # DC
    286       0    1   2.1261  3.068697e+00  1.406397e+00 -1.769091e+00  0 0 0 # DC
    368       0    1   2.1261  2.534573e+00  2.394729e+00 -1.775359e+00  0 0 0 # DC
    455       0    1   2.1261  2.910464e+00  3.365348e+00 -2.075519e+00  0 0 0 # DC
    472       0    1   2.1261  3.808032e+00  1.777167e+00 -2.944320e+00  0 0 0 # DC
    618       0    1   2.1261  4.652016e+00  2.042559e+00 -2.294724e+00  0 0 0 # DC
    735       0    1   2.1261  4.719958e+00  2.107468e+00 -3.435388e+00  0 0 0 # DC
     83       0    1   2.1261 -5.107996e+00  5.407262e+00 -4.172479e+00  0 0 0 # DC
    478       0    1   2.1261 -3.612826e+00  5.418211e+00 -2.490002e+00  0 0 0 # DC
    171       0    1   2.1261 -2.527112e+00  4.637436e+00 -2.604552e+00  0 0 0 # DC
    611       0    1   2.1261 -3.507210e+00  3.151206e+00 -2.720647e+00  0 0 0 # DC
    851       0    1   2.1261 -2.510255e+00 -5.298609e+00 -2.438171e+00  0 1 0 # DC
    288       0    1   2.1261 -1.648196e+00  5.215722e+00 -2.911800e+00  0 0 0 # DC
    352       0    1   2.1261 -7.991323e-01 -5.107454e+00 -3.044692e+00  0 1 0 # DC
    530       0    1   2.1261 -1.195747e+00 -4.323244e+00 -3.650170e+00  0 1 0 # DC
     31       0    1   2.1261  1.685292e-01 -5.098747e+00 -2.621465e+00  0 1 0 # DC
    480       0    1   2.1261 -1.378946e+00 -5.025930e+00 -2.158151e+00  0 1 0 # DC
    740       0    1   2.1261 -3.711575e-01 -4.803607e+00 -4.128838e+00  0 1 0 # DC
    870       0    1   2.1261 -6.665077e-01  4.777414e+00 -2.601816e+00  0 0 0 # DC
    558       0    1   2.1261  1.958523e+00  4.236536e+00 -1.916637e+00  0 0 0 # DC
    512       0    1   2.1261  2.662842e+00 -4.976696e+00 -2.785655e+00  0 1 0 # DC
    518       0    1   2.1261  2.962262e+00  4.307314e+00 -1.511910e+00  0 0 0 # DC
     87       0    1   2.1261 -3.796618e+00 -4.509319e+00 -5.025378e-01  0 0 0 # DC
    200       0    1   2.1261 -4.719394e+00 -4.508201e+00 -1.145385e+00  0 0 0 # DC
    519       0    1   2.1261 -3.744694e+00 -5.158484e+00 -1.403526e+00  0 0 0 # DC
    520       0    1   2.1261  5.473780e+00  4.785338e+00 -1.563697e+00  -1 -1 0 # DC
    754       0    1   2.1261 -3.864207e+00 -4.001198e+00 -1.482347e+00  0 0 0 # DC
    867       0    1   2.1261 -2.961185e+00  5.089014e+00 -1.656265e+00  0 -1 0 # DC
    517       0    1   2.1261 -2.174611e+00 -4.278416e+00 -2.057051e+00  0 0 0 # DC
    264       0    1   2.1261  7.336737e-01 -4.193935e+00 -2.515991e+00  0 0 0 # DC
    791       0    1   2.1261  5.759217e-01 -4.934190e+00 -1.621160e+00  0 0 0 # DC
    304       0    1   2.1261  2.245957e+00 -5.126072e+00 -9.604328e-01  0 0 0 # DC
    835       0    1   2.1261  1.833698e+00 -4.826847e+00 -1.997942e+00  0 0 0 # DC
      6       0    1   2.1261  3.967598e+00 -5.106916e+00 -1.614112e+00  0 0 0 # DC
    390       0    1   2.1261  3.177053e+00  5.307745e+00 -1.177659e+00  0 -1 0 # DC
    781       0    1   2.1261  2.923328e+00 -4.817243e+00 -1.759724e+00  0 0 0 # DC
    826       0    1   2.1261  3.368773e+00  5.315806e+00 -2.295655e+00  0 -1 0 # DC
    434       0    1   2.1261 -3.753457e+00 -2.930829e+00 -1.477600e+00  0 0 0 # DC
    464       0    1   2.1261 -4.614625e+00 -3.117247e+00 -2.104310e+00  0 0 0 # DC
    104       0    1   2.1261 -2.285860e+00 -1.763719e+00 -1.475306e+00  0 0 0 # DC
    316       0    1   2.1261 -3.412304e+00 -1.918793e+00 -1.356422e+00  0 0 0 # DC
    406       0    1   2.1261 -2.868638e+00 -2.440952e+00 -2.141698e+00  0 0 0 # DC
    702       0    1   2.1261 -3.219954e+00 -3.568707e+00 -7.157516e-01  0 0 0 # DC
     10       0    1   2.1261 -2.728091e+00 -2.736387e+00 -1.132235e+00  0 0 0 # DC
    210       0    1   2.1261 -1.958801e+00 -2.966258e+00 -1.873223e+00  0 0 0 # DC
    535       0    1   2.1261 -1.688088e+00 -2.636540e+00 -8.421268e-01  0 0 0 # DC
     96       0    1   2.1261 -2.917815e-01 -2.381290e+00 -2.213518e+00  0 0 0 # DC
    555       0    1   2.1261  5.340339e-01 -3.821372e+00 -1.509254e+00  0 0 0 # DC
    598       0    1   2.1261  9.177522e-01 -2.848045e+00 -1.937690e+00  0 0 0 # DC
    742       0    1   2.1261  1.586072e+00 -3.793873e+00 -1.948838e+00  0 0 0 # DC
    272       0    1   2.1261  4.659392e+00 -4.288634e+00 -1.780506e+00  0 0 0 # DC
    431       0    1   2.1261  3.632285e+00 -3.915901e+00 -1.553355e+00  0 0 0 # DC
    440       0    1   2.1261  2.411179e+00 -4.057442e+00 -1.213620e+00  0 0 0 # DC
    516       0    1   2.1261  4.245186e+00 -2.073225e+00 -1.510303e+00  0 0 0 # DC
    624       0    1   2.1261  3.756509e+00 -2.909283e+00 -2.070647e+00  0 0 0 # DC
    806       0    1   2.1261  2.646158e+00 -3.917255e+00 -2.307860e+00  0 0 0 # DC
    888       0    1   2.1261  3.162697e+00 -2.076844e+00 -1.676639e+00  0 0 0 # DC
    399       0    1   2.1261  4.765266e+00 -2.526785e+00 -2.342539e+00  0 0 0 # DC
    602       0    1   2.1261  4.551446e+00 -3.251880e+00 -1.477765e+00  0 0 0 # DC
    293       0    1   2.1261 -4.842822e+00 -1.022578e+00 -1.280210e+00  0 0 0 # DC
    319       0    1   2.1261 -5.055766e+00 -1.016674e+00 -2.491982e+00  0 0 0 # DC
    442       0    1   2.1261 -4.216282e+00 -1.509152e+00 -2.070562e+00  0 0 0 # DC
    836       0    1   2.1261 -3.671577e+00 -8.755338e-01 -1.414526e+00  0 0 0 # DC
    894       0    1   2.1261 -4.089457e+00 -1.492749e+00 -6.472738e-01  0 0 0 # DC
    199       0    1   2.1261 -3.164448e+00 -1.408699e+00 -2.278887e+00  0 0 0 # DC
    139       0    1   2.1261  4.618661e-01 -6.473563e-01 -1.926740e+00  0 0 0 # DC
    639       0    1   2.1261  5.178004e-01 -1.655041e+00 -2.391973e+00  0 0 0 # DC
    679       0    1   2.1261 -1.072563e+00 -1.528059e+00 -2.617696e+00  0 0 0 # DC
    685       0    1   2.1261 -3.561941e-01 -1.384895e+00 -1.762204e+00  0 0 0 # DC
    810       0    1   2.1261  6.820408e-01 -1.589986e+00 -1.336238e+00  0 0 0 # DC
    493       0    1   2.1261  1.659364e+00 -2.109068e+00 -1.552956e+00  0 0 0 # DC
    712       0    1   2.1261  1.467576e+00 -1.183428e+00 -2.078597e+00  0 0 0 # DC
    263       0    1   2.1261  3.495208e+00 -1.236450e+00 -1.060677e+00  0 0 0 # DC
    186       0    1   2.1261 -4.662277e+00 -2.576800e+00 -3.655147e-01  1 0 0 # DC
    448       0    1   2.1261  5.229871e+00 -6.790592e-01 -1.727910e+00  0 0 0 # DC
    463       0    1   2.1261  4.697257e+00 -1.374032e+00 -8.213007e-01  0 0 0 # DC
    541       0    1   2.1261 -5.266851e+00 -1.669848e+00 -4.811113e-01  1 0 0 # DC
    669       0    1   2.1261  5.384528e+00 -1.783258e+00 -1.541129e+00  0 0 0 # DC
    152       0    1   2.1261 -4.296864e+00 -1.463438e-01 -9.135665e-01  0 0 0 # DC
    688       0    1   2.1261 -3.914023e+00  4.748360e-01 -1.505427e-01  0 0 0 # DC
    501       0    1   2.1261 -3.206936e+00 -6.520288e-02 -9.083078e-01  0 0 0 # DC
    248       0    1   2.1261 -1.710562e+00 -4.211653e-02 -1.862799e+00  0 0 0 # DC
    283       0    1   2.1261 -6.011702e-01 -3.397996e-01 -1.912125e+00  0 0 0 # DC
    569       0    1   2.1261 -2.553758e+00 -6.849417e-01 -1.565625e+00  0 0 0 # DC
    610       0    1   2.1261 -1.913003e-02 -4.801402e-01 -9.892843e-01  0 0 0 # DC
    342       0    1   2.1261  7.282184e-01  3.148067e-01 -1.339052e+00  0 0 0 # DC
    373       0    1   2.1261  2.326946e+00 -3.220253e-01 -1.402279e+00  0 0 0 # DC
    503       0    1   2.1261  1.666125e+00  2.446605e-01 -7.430350e-01  0 0 0 # DC
    773       0    1   2.1261  2.017478e+00  6.820939e-01 -1.657988e+00  0 0 0 # DC
    110       0    1   2.1261  4.225944e+00 -1.022707e+00 -1.799485e+00  0 0 0 # DC
    395       0    1   2.1261  3.662441e+00 -1.503234e-01 -1.435393e+00  0 0 0 # DC
    432       0    1   2.1261  3.048507e+00 -3.460440e-01 -5.326281e-01  0 0 0 # DC
    588       0    1   2.1261  2.945891e+00  2.702453e-01 -2.093425e+00  0 0 0 # DC
    230       0    1   2.1261 -4.392979e+00 -3.096109e-01 -2.004742e+00  1 0 0 # DC
    460       0    1   2.1261  4.679483e+00  1.446351e-01 -1.185005e+00  0 0 0 # DC
     75       0    1   2.1261 -4.561419e+00  7.635928e-01 -1.878757e+00  0 0 0 # DC
    523       0    1   2.1261 -2.732794e+00  3.882943e-01 -1.775582e+00  0 0 0 # DC
    661       0    1   2.1261 -1.372305e+00  8.297670e-01 -1.337203e+00  0 0 0 # DC
    699       0    1   2.1261 -9.112560e-01  5.799608e-01 -2.341461e+00  0 0 0 # DC
    786       0    1   2.1261 -1.690482e+00  1.965783e+00 -2.039499e+00  0 0 0 # DC
    817       0    1   2.1261  3.797871e-01  1.372720e+00 -1.659349e+00  0 0 0 # DC
    300       0    1   2.1261  7.187571e-01  2.141851e+00 -9.446011e-01  0 0 0 # DC
    389       0    1   2.1261  4.060099e+00  1.650535e+00 -1.479632e+00  0 0 0 # DC
    884       0    1   2.1261  4.446892e+00 -4.485142e-02 -2.248035e+00  0 0 0 # DC
    833       0    1   2.1261 -4.703318e+00  2.738395e+00 -1.352585e+00  0 0 0 # DC
    447       0    1   2.1261 -2.374509e+00  2.687535e+00 -7.608594e-01  0 0 0 # DC
    506       0    1   2.1261 -3.644111e+00  2.540998e+00 -1.851505e+00  0 0 0 # DC